
    -----------------------------------------------------------------------
          Psi4: An Open-Source Ab Initio Electronic Structure Package
                               Psi4 1.3.2 release

                         Git: Rev {HEAD} ecbda83 


    R. M. Parrish, L. A. Burns, D. G. A. Smith, A. C. Simmonett,
    A. E. DePrince III, E. G. Hohenstein, U. Bozkaya, A. Yu. Sokolov,
    R. Di Remigio, R. M. Richard, J. F. Gonthier, A. M. James,
    H. R. McAlexander, A. Kumar, M. Saitow, X. Wang, B. P. Pritchard,
    P. Verma, H. F. Schaefer III, K. Patkowski, R. A. King, E. F. Valeev,
    F. A. Evangelista, J. M. Turney, T. D. Crawford, and C. D. Sherrill,
    J. Chem. Theory Comput. 13(7) pp 3185--3197 (2017).
    (doi: 10.1021/acs.jctc.7b00174)


                         Additional Contributions by
    P. Kraus, H. Kruse, M. H. Lechner, M. C. Schieber, R. A. Shaw,
    A. Alenaizan, R. Galvelis, Z. L. Glick, S. Lehtola, and J. P. Misiewicz

    -----------------------------------------------------------------------


    Psi4 started on: Tuesday, 22 June 2021 12:15AM

    Process ID: 18904
    Host:       cpu-spot-dy-c5n2xlarge-1
    PSIDATADIR: /fsx/users/francis/anaconda3/envs/poltype-dev/share/psi4
    Memory:     500.0 MiB
    Threads:    1
    
  ==> Input File <==

--------------------------------------------------------------------------
molecule { 
0 1
 N   -1.050659   -1.485924    0.122956
 C   -2.374499   -1.155927    0.247489
 C   -2.698194    0.373858    0.298723
 F   -3.560387    0.648560   -0.738993
 F   -3.356558    0.617319    1.483261
 C   -1.491028    1.370190    0.202775
 C   -0.133051    0.793153    0.076034
 C    0.993310    1.641523   -0.001323
 C    2.286311    1.116663   -0.122825
 C    2.487590   -0.289188   -0.181365
 C    1.360634   -1.136172   -0.092218
 C    0.061415   -0.614921    0.035708
 S    4.055804   -1.112778   -0.310377
 C    5.179491    0.063894   -1.110757
 O   -3.226133   -2.030639    0.312332
 O   -1.679650    2.582629    0.235508
 H    3.120787    1.814655   -0.163640
 H    0.830747    2.719214    0.038930
 H   -0.907424   -2.486274    0.095927
 H    1.499597   -2.218042   -0.121395
 H    4.839877    0.249030   -2.134501
 H    5.220288    0.996047   -0.540792
 H    6.179764   -0.378925   -1.142419
}
set optking { 
  frozen_dihedral = ("
    11 10 13 14
    9 10 13 14
    21 14 13 10
  ")
}
set {
  geom_maxiter 400
  g_convergence GAU_LOOSE
  dynamic_level 1
}
memory 16GB
set_num_threads(8)
psi4_io.set_default_path("/scratch/Psi4-ligand")
for _ in range(1):
  try:
    set opt_coordinates both
    optimize('wb97x-d/6-31+G*')
    break
  except OptimizationConvergenceError:
    break
  else:
    try:
      set opt_coordinates cartesian
      optimize('wb97x-d/6-31+G*')
      break
    except OptimizationConvergenceError:
      pass
clean()
--------------------------------------------------------------------------

  Memory set to  14.901 GiB by Python driver.
  Threads set to 8 by Python driver.
gradient() will perform analytic gradient computation.

*** tstart() called on cpu-spot-dy-c5n2xlarge-1
*** at Tue Jun 22 00:15:05 2021

   => Loading Basis Set <=

    Name: 6-31+G*
    Role: ORBITAL
    Keyword: BASIS
    atoms 1             entry N          line   138 file /fsx/users/francis/anaconda3/envs/poltype-dev/share/psi4/basis/6-31pgs.gbs 
    atoms 2-3, 6-12, 14 entry C          line   119 file /fsx/users/francis/anaconda3/envs/poltype-dev/share/psi4/basis/6-31pgs.gbs 
    atoms 4-5           entry F          line   176 file /fsx/users/francis/anaconda3/envs/poltype-dev/share/psi4/basis/6-31pgs.gbs 
    atoms 13            entry S          line   344 file /fsx/users/francis/anaconda3/envs/poltype-dev/share/psi4/basis/6-31pgs.gbs 
    atoms 15-16         entry O          line   157 file /fsx/users/francis/anaconda3/envs/poltype-dev/share/psi4/basis/6-31pgs.gbs 
    atoms 17-23         entry H          line    46 file /fsx/users/francis/anaconda3/envs/poltype-dev/share/psi4/basis/6-31pgs.gbs 


         ---------------------------------------------------------
                                   SCF
               by Justin Turney, Rob Parrish, Andy Simmonett
                          and Daniel G. A. Smith
                              RKS Reference
                        8 Threads,  15258 MiB Core
         ---------------------------------------------------------

  ==> Geometry <==

    Molecular point group: c1
    Full point group: C1

    Geometry (in Angstrom), charge = 0, multiplicity = 1:

       Center              X                  Y                   Z               Mass       
    ------------   -----------------  -----------------  -----------------  -----------------
         N           -1.026345944787    -1.498891907743     0.110903828888    14.003074004430
         C           -2.350185944787    -1.168894907743     0.235436828888    12.000000000000
         C           -2.673880944787     0.360890092257     0.286670828888    12.000000000000
         F           -3.536073944787     0.635592092257    -0.751045171112    18.998403162730
         F           -3.332244944787     0.604351092257     1.471208828888    18.998403162730
         C           -1.466714944787     1.357222092257     0.190722828888    12.000000000000
         C           -0.108737944787     0.780185092257     0.063981828888    12.000000000000
         C            1.017623055213     1.628555092257    -0.013375171112    12.000000000000
         C            2.310624055213     1.103695092257    -0.134877171112    12.000000000000
         C            2.511903055213    -0.302155907743    -0.193417171112    12.000000000000
         C            1.384947055213    -1.149139907743    -0.104270171112    12.000000000000
         C            0.085728055213    -0.627888907743     0.023655828888    12.000000000000
         S            4.080117055213    -1.125745907743    -0.322429171112    31.972071174400
         C            5.203804055213     0.050926092257    -1.122809171112    12.000000000000
         O           -3.201819944787    -2.043606907743     0.300279828888    15.994914619570
         O           -1.655336944787     2.569661092257     0.223455828888    15.994914619570
         H            3.145100055213     1.801687092257    -0.175692171112     1.007825032230
         H            0.855060055213     2.706246092257     0.026877828888     1.007825032230
         H           -0.883110944787    -2.499241907743     0.083874828888     1.007825032230
         H            1.523910055213    -2.231009907743    -0.133447171112     1.007825032230
         H            4.864190055213     0.236062092257    -2.146553171112     1.007825032230
         H            5.244601055213     0.983079092257    -0.552844171112     1.007825032230
         H            6.204077055213    -0.391892907743    -1.154471171112     1.007825032230

  Running in c1 symmetry.

  Rotational constants: A =      0.03827  B =      0.00811  C =      0.00699 [cm^-1]
  Rotational constants: A =   1147.31554  B =    243.01634  C =    209.62609 [MHz]
  Nuclear repulsion = 1174.572994780402269

  Charge       = 0
  Multiplicity = 1
  Electrons    = 124
  Nalpha       = 62
  Nbeta        = 62

  ==> Algorithm <==

  SCF Algorithm Type is DF.
  DIIS enabled.
  MOM disabled.
  Fractional occupation disabled.
  Guess Type is SAD.
  Energy threshold   = 1.00e-08
  Density threshold  = 1.00e-08
  Integral threshold = 0.00e+00

  ==> Primary Basis <==

  Basis Set: 6-31+G*
    Blend: 6-31+G*
    Number of shells: 144
    Number of basis function: 322
    Number of Cartesian functions: 322
    Spherical Harmonics?: false
    Max angular momentum: 2

  ==> DFT Potential <==

   => Composite Functional: WB97X-D <= 

    wB97X-D Hyb-GGA Exchange-Correlation Functional

    J.-D. Chai and M. Head-Gordon, Phys. Chem. Chem. Phys. 10, 6615 (2008)

    Deriv               =              1
    GGA                 =           TRUE
    Meta                =          FALSE

    Exchange Hybrid     =           TRUE
    MP2 Hybrid          =          FALSE

   => Exchange-Correlation Functionals <=

    1.0000   wB97D range-separated functional

   => Exact (HF) Exchange <=

    0.7780            HF,LR [omega = 0.2000]
    0.2220               HF 

   => Molecular Quadrature <=

    Radial Scheme          =       TREUTLER
    Pruning Scheme         =           FLAT
    Nuclear Scheme         =       TREUTLER

    BS radius alpha        =              1
    Pruning alpha          =              1
    Radial Points          =             75
    Spherical Points       =            302
    Total Points           =         520856
    Total Blocks           =           3881
    Max Points             =            256
    Max Functions          =            280

   => WB97X-D: Empirical Dispersion <=

    Chai and Head-Gordon Dispersion Correction
    Chai, J.-D.; Head-Gordon, M. (2010), J. Chem. Phys., 132: 6615-6620

        s6 =       1.000000

   => Loading Basis Set <=

    Name: (6-31+G* AUX)
    Role: JKFIT
    Keyword: DF_BASIS_SCF
    atoms 1             entry N          line   252 file /fsx/users/francis/anaconda3/envs/poltype-dev/share/psi4/basis/heavy-aug-cc-pvdz-jkfit.gbs 
    atoms 2-3, 6-12, 14 entry C          line   194 file /fsx/users/francis/anaconda3/envs/poltype-dev/share/psi4/basis/heavy-aug-cc-pvdz-jkfit.gbs 
    atoms 4-5           entry F          line   368 file /fsx/users/francis/anaconda3/envs/poltype-dev/share/psi4/basis/heavy-aug-cc-pvdz-jkfit.gbs 
    atoms 13            entry S          line   730 file /fsx/users/francis/anaconda3/envs/poltype-dev/share/psi4/basis/heavy-aug-cc-pvdz-jkfit.gbs 
    atoms 15-16         entry O          line   310 file /fsx/users/francis/anaconda3/envs/poltype-dev/share/psi4/basis/heavy-aug-cc-pvdz-jkfit.gbs 
    atoms 17-23         entry H          line   116 file /fsx/users/francis/anaconda3/envs/poltype-dev/share/psi4/basis/heavy-aug-cc-pvdz-jkfit.gbs 

  ==> Pre-Iterations <==

   -------------------------------------------------------
    Irrep   Nso     Nmo     Nalpha   Nbeta   Ndocc  Nsocc
   -------------------------------------------------------
     A        322     322       0       0       0       0
   -------------------------------------------------------
    Total     322     322      62      62      62       0
   -------------------------------------------------------

  ==> Integral Setup <==

  ==> DiskDFJK: Density-Fitted J/K Matrices <==

    J tasked:                  Yes
    K tasked:                  Yes
    wK tasked:                 Yes
    Omega:               2.000E-01
    OpenMP threads:              8
    Integrals threads:           8
    Memory [MiB]:             8458
    Algorithm:                Core
    Integral Cache:           NONE
    Schwarz Cutoff:          1E-12
    Fitting Condition:       1E-10

   => Auxiliary Basis Set <=

  Basis Set: (6-31+G* AUX)
    Blend: HEAVY-AUG-CC-PVDZ-JKFIT
    Number of shells: 523
    Number of basis function: 1840
    Number of Cartesian functions: 1840
    Spherical Harmonics?: false
    Max angular momentum: 3

  Cached 100.0% of DFT collocation blocks in 2.916 [GiB].

  Minimum eigenvalue in the overlap matrix is 5.4224544340E-07.
  Using Symmetric Orthogonalization.

  SCF Guess: Superposition of Atomic Densities via on-the-fly atomic UHF.

  ==> Iterations <==

                           Total Energy        Delta E     RMS |[F,P]|

   @DF-RKS iter SAD: -1187.21043115338011   -1.18721e+03   0.00000e+00 
   @DF-RKS iter   1: -1187.54638936775791   -3.35958e-01   3.38303e-03 DIIS
   @DF-RKS iter   2: -1187.55821882200166   -1.18295e-02   3.68357e-03 DIIS
   @DF-RKS iter   3: -1188.08660443309032   -5.28386e-01   7.88989e-04 DIIS
   @DF-RKS iter   4: -1188.11127400308192   -2.46696e-02   2.59529e-04 DIIS
   @DF-RKS iter   5: -1188.11462267762204   -3.34867e-03   7.12394e-05 DIIS
   @DF-RKS iter   6: -1188.11501487814007   -3.92201e-04   2.36326e-05 DIIS
   @DF-RKS iter   7: -1188.11507585861614   -6.09805e-05   1.01748e-05 DIIS
   @DF-RKS iter   8: -1188.11509289833612   -1.70397e-05   3.94087e-06 DIIS
   @DF-RKS iter   9: -1188.11509587004844   -2.97171e-06   2.21043e-06 DIIS
   @DF-RKS iter  10: -1188.11509623851384   -3.68465e-07   7.33106e-07 DIIS
   @DF-RKS iter  11: -1188.11509629102466   -5.25108e-08   3.19794e-07 DIIS
   @DF-RKS iter  12: -1188.11509630128467   -1.02600e-08   1.48663e-07 DIIS
   @DF-RKS iter  13: -1188.11509630385444   -2.56978e-09   5.70870e-08 DIIS
   @DF-RKS iter  14: -1188.11509630415003   -2.95586e-10   2.51803e-08 DIIS
   @DF-RKS iter  15: -1188.11509630420892   -5.88898e-11   1.21989e-08 DIIS
   @DF-RKS iter  16: -1188.11509630422097   -1.20508e-11   6.48587e-09 DIIS
  Energy and wave function converged.


  ==> Post-Iterations <==

    Orbital Energies [Eh]
    ---------------------

    Doubly Occupied:                                                      

       1A    -89.083378     2A    -24.873714     3A    -24.873684  
       4A    -19.306049     5A    -19.293905     6A    -14.542859  
       7A    -10.510906     8A    -10.458676     9A    -10.436190  
      10A    -10.411520    11A    -10.392309    12A    -10.357069  
      13A    -10.355631    14A    -10.354228    15A    -10.353156  
      16A    -10.347734    17A     -8.100773    18A     -6.051538  
      19A     -6.047038    20A     -6.040843    21A     -1.382082  
      22A     -1.325767    23A     -1.189221    24A     -1.175615  
      25A     -1.092270    26A     -0.999510    27A     -0.940224  
      28A     -0.904116    29A     -0.886372    30A     -0.869056  
      31A     -0.797273    32A     -0.763974    33A     -0.750961  
      34A     -0.743776    35A     -0.693688    36A     -0.678784  
      37A     -0.666341    38A     -0.644288    39A     -0.628365  
      40A     -0.589389    41A     -0.582653    42A     -0.565094  
      43A     -0.562117    44A     -0.556361    45A     -0.553275  
      46A     -0.552098    47A     -0.548404    48A     -0.536089  
      49A     -0.523161    50A     -0.516772    51A     -0.507291  
      52A     -0.499061    53A     -0.492696    54A     -0.483729  
      55A     -0.475043    56A     -0.440676    57A     -0.427107  
      58A     -0.395888    59A     -0.392094    60A     -0.368316  
      61A     -0.340220    62A     -0.319644  

    Virtual:                                                              

      63A     -0.048198    64A      0.010955    65A      0.040204  
      66A      0.046917    67A      0.052114    68A      0.064214  
      69A      0.067083    70A      0.075555    71A      0.080685  
      72A      0.088537    73A      0.091980    74A      0.095630  
      75A      0.104397    76A      0.112044    77A      0.113729  
      78A      0.117089    79A      0.119545    80A      0.133073  
      81A      0.135229    82A      0.139699    83A      0.144450  
      84A      0.149732    85A      0.156363    86A      0.159797  
      87A      0.168354    88A      0.171527    89A      0.176270  
      90A      0.179519    91A      0.183807    92A      0.190649  
      93A      0.194314    94A      0.197008    95A      0.198678  
      96A      0.208306    97A      0.209273    98A      0.215521  
      99A      0.220722   100A      0.230192   101A      0.234837  
     102A      0.240391   103A      0.241940   104A      0.245360  
     105A      0.245427   106A      0.251039   107A      0.255560  
     108A      0.261696   109A      0.264113   110A      0.269117  
     111A      0.274449   112A      0.280843   113A      0.285249  
     114A      0.287111   115A      0.298145   116A      0.301290  
     117A      0.306475   118A      0.309264   119A      0.317173  
     120A      0.322489   121A      0.329377   122A      0.332322  
     123A      0.336435   124A      0.341349   125A      0.352350  
     126A      0.359377   127A      0.360908   128A      0.374371  
     129A      0.377498   130A      0.385251   131A      0.390466  
     132A      0.392252   133A      0.398015   134A      0.401344  
     135A      0.410729   136A      0.416042   137A      0.426009  
     138A      0.434732   139A      0.443543   140A      0.447572  
     141A      0.456690   142A      0.468198   143A      0.477435  
     144A      0.481344   145A      0.503813   146A      0.510595  
     147A      0.525178   148A      0.528031   149A      0.532813  
     150A      0.547952   151A      0.566045   152A      0.576988  
     153A      0.588161   154A      0.597721   155A      0.606456  
     156A      0.633145   157A      0.660755   158A      0.665120  
     159A      0.677158   160A      0.693514   161A      0.724507  
     162A      0.735073   163A      0.743062   164A      0.752958  
     165A      0.770581   166A      0.772258   167A      0.786740  
     168A      0.799376   169A      0.802232   170A      0.811310  
     171A      0.826020   172A      0.843378   173A      0.865198  
     174A      0.877688   175A      0.881919   176A      0.890106  
     177A      0.896749   178A      0.913249   179A      0.928623  
     180A      0.932771   181A      0.962230   182A      0.970020  
     183A      0.977386   184A      0.987309   185A      1.008009  
     186A      1.022788   187A      1.049100   188A      1.056766  
     189A      1.078434   190A      1.082512   191A      1.086984  
     192A      1.098336   193A      1.113182   194A      1.146780  
     195A      1.149509   196A      1.172159   197A      1.195216  
     198A      1.200510   199A      1.212306   200A      1.216510  
     201A      1.225217   202A      1.242227   203A      1.265626  
     204A      1.283462   205A      1.290881   206A      1.320787  
     207A      1.322399   208A      1.334463   209A      1.341254  
     210A      1.385976   211A      1.399655   212A      1.405475  
     213A      1.413466   214A      1.417701   215A      1.426732  
     216A      1.446171   217A      1.451289   218A      1.464688  
     219A      1.466429   220A      1.482504   221A      1.502325  
     222A      1.513592   223A      1.525071   224A      1.530239  
     225A      1.553149   226A      1.592962   227A      1.619829  
     228A      1.650444   229A      1.663587   230A      1.669574  
     231A      1.708541   232A      1.749350   233A      1.753358  
     234A      1.758472   235A      1.759578   236A      1.763077  
     237A      1.773730   238A      1.780728   239A      1.787955  
     240A      1.820732   241A      1.838803   242A      1.863813  
     243A      1.873176   244A      1.896457   245A      1.899071  
     246A      1.908902   247A      1.918769   248A      1.946782  
     249A      1.962819   250A      1.966040   251A      1.971203  
     252A      2.004591   253A      2.038504   254A      2.046853  
     255A      2.056951   256A      2.057986   257A      2.080362  
     258A      2.089440   259A      2.099196   260A      2.112292  
     261A      2.145169   262A      2.152056   263A      2.165904  
     264A      2.197849   265A      2.205549   266A      2.210876  
     267A      2.248413   268A      2.256722   269A      2.261373  
     270A      2.267635   271A      2.302763   272A      2.308339  
     273A      2.316296   274A      2.336184   275A      2.350240  
     276A      2.365797   277A      2.380127   278A      2.402399  
     279A      2.461839   280A      2.464869   281A      2.509906  
     282A      2.514004   283A      2.568197   284A      2.625772  
     285A      2.656206   286A      2.675242   287A      2.705836  
     288A      2.730703   289A      2.735875   290A      2.769349  
     291A      2.774428   292A      2.825699   293A      2.827138  
     294A      2.850018   295A      2.897889   296A      2.948412  
     297A      2.960416   298A      3.028554   299A      3.123739  
     300A      3.154551   301A      3.209787   302A      3.232403  
     303A      3.337773   304A      3.378614   305A      3.462768  
     306A      3.486569   307A      4.033391   308A      4.278866  
     309A      4.309891   310A      4.331406   311A      4.360201  
     312A      4.373927   313A      4.411498   314A      4.468288  
     315A      4.483345   316A      4.520330   317A      4.579357  
     318A      4.779015   319A      4.833958   320A      5.116631  
     321A      5.695765   322A      7.143112  

    Final Occupation by Irrep:
              A 
    DOCC [    62 ]

  @DF-RKS Final Energy: -1188.11509630422097

   => Energetics <=

    Nuclear Repulsion Energy =           1174.5729947804022686
    One-Electron Energy =               -3963.2131618532284847
    Two-Electron Energy =                1689.9798523303363709
    DFT Exchange-Correlation Energy =     -89.4412723410895580
    Empirical Dispersion Energy =          -0.0135092206412856
    VV10 Nonlocal Energy =                  0.0000000000000000
    Total Energy =                      -1188.1150963042209696

Computation Completed


Properties will be evaluated at   0.000000,   0.000000,   0.000000 [a0]

Properties computed using the SCF density matrix

  Nuclear Dipole Moment: [e a0]
     X:    26.2101      Y:    -0.6254      Z:    -4.4845

  Electronic Dipole Moment: [e a0]
     X:   -23.0477      Y:     0.2733      Z:     3.9200

  Dipole Moment: [e a0]
     X:     3.1624      Y:    -0.3521      Z:    -0.5646     Total:     3.2317

  Dipole Moment: [D]
     X:     8.0381      Y:    -0.8950      Z:    -1.4351     Total:     8.2141


*** tstop() called on cpu-spot-dy-c5n2xlarge-1 at Tue Jun 22 00:16:21 2021
Module time:
	user time   =     567.05 seconds =       9.45 minutes
	system time =      10.26 seconds =       0.17 minutes
	total time  =         76 seconds =       1.27 minutes
Total time:
	user time   =     567.05 seconds =       9.45 minutes
	system time =      10.26 seconds =       0.17 minutes
	total time  =         76 seconds =       1.27 minutes

*** tstart() called on cpu-spot-dy-c5n2xlarge-1
*** at Tue Jun 22 00:16:21 2021


         ------------------------------------------------------------
                                   SCF GRAD                          
                          Rob Parrish, Justin Turney,                
                       Andy Simmonett, and Alex Sokolov              
         ------------------------------------------------------------

  ==> Geometry <==

    Molecular point group: c1
    Full point group: C1

    Geometry (in Angstrom), charge = 0, multiplicity = 1:

       Center              X                  Y                   Z               Mass       
    ------------   -----------------  -----------------  -----------------  -----------------
         N           -1.026345944787    -1.498891907743     0.110903828888    14.003074004430
         C           -2.350185944787    -1.168894907743     0.235436828888    12.000000000000
         C           -2.673880944787     0.360890092257     0.286670828888    12.000000000000
         F           -3.536073944787     0.635592092257    -0.751045171112    18.998403162730
         F           -3.332244944787     0.604351092257     1.471208828888    18.998403162730
         C           -1.466714944787     1.357222092257     0.190722828888    12.000000000000
         C           -0.108737944787     0.780185092257     0.063981828888    12.000000000000
         C            1.017623055213     1.628555092257    -0.013375171112    12.000000000000
         C            2.310624055213     1.103695092257    -0.134877171112    12.000000000000
         C            2.511903055213    -0.302155907743    -0.193417171112    12.000000000000
         C            1.384947055213    -1.149139907743    -0.104270171112    12.000000000000
         C            0.085728055213    -0.627888907743     0.023655828888    12.000000000000
         S            4.080117055213    -1.125745907743    -0.322429171112    31.972071174400
         C            5.203804055213     0.050926092257    -1.122809171112    12.000000000000
         O           -3.201819944787    -2.043606907743     0.300279828888    15.994914619570
         O           -1.655336944787     2.569661092257     0.223455828888    15.994914619570
         H            3.145100055213     1.801687092257    -0.175692171112     1.007825032230
         H            0.855060055213     2.706246092257     0.026877828888     1.007825032230
         H           -0.883110944787    -2.499241907743     0.083874828888     1.007825032230
         H            1.523910055213    -2.231009907743    -0.133447171112     1.007825032230
         H            4.864190055213     0.236062092257    -2.146553171112     1.007825032230
         H            5.244601055213     0.983079092257    -0.552844171112     1.007825032230
         H            6.204077055213    -0.391892907743    -1.154471171112     1.007825032230

  Nuclear repulsion = 1174.572994780402269

  ==> Basis Set <==

  Basis Set: 6-31+G*
    Blend: 6-31+G*
    Number of shells: 144
    Number of basis function: 322
    Number of Cartesian functions: 322
    Spherical Harmonics?: false
    Max angular momentum: 2

  ==> DFJKGrad: Density-Fitted SCF Gradients <==

    Gradient:                    1
    J tasked:                  Yes
    K tasked:                  Yes
    wK tasked:                 Yes
    Omega:               2.000E-01
    OpenMP threads:              8
    Integrals threads:           8
    Memory [MiB]:            11444
    Schwarz Cutoff:          0E+00
    Fitting Condition:       1E-10

   => Auxiliary Basis Set <=

  Basis Set: (6-31+G* AUX)
    Blend: HEAVY-AUG-CC-PVDZ-JKFIT
    Number of shells: 523
    Number of basis function: 1840
    Number of Cartesian functions: 1840
    Spherical Harmonics?: false
    Max angular momentum: 3

  ==> DFT Potential <==

   => Composite Functional: WB97X-D <= 

    wB97X-D Hyb-GGA Exchange-Correlation Functional

    J.-D. Chai and M. Head-Gordon, Phys. Chem. Chem. Phys. 10, 6615 (2008)

    Deriv               =              1
    GGA                 =           TRUE
    Meta                =          FALSE

    Exchange Hybrid     =           TRUE
    MP2 Hybrid          =          FALSE

   => Exchange-Correlation Functionals <=

    1.0000   wB97D range-separated functional

   => Exact (HF) Exchange <=

    0.7780            HF,LR [omega = 0.2000]
    0.2220               HF 

   => Molecular Quadrature <=

    Radial Scheme          =       TREUTLER
    Pruning Scheme         =           FLAT
    Nuclear Scheme         =       TREUTLER

    BS radius alpha        =              1
    Pruning alpha          =              1
    Radial Points          =             75
    Spherical Points       =            302
    Total Points           =         520856
    Total Blocks           =           3881
    Max Points             =            256
    Max Functions          =            280


  -Total Gradient:
     Atom            X                  Y                   Z
    ------   -----------------  -----------------  -----------------
       1       -0.009571970057    -0.011023039743     0.000909831016
       2        0.008035801787     0.011713151297    -0.000542321641
       3        0.012790994890    -0.003866489145    -0.001188145740
       4       -0.011193822282     0.003586951757    -0.014238670125
       5       -0.008313387343     0.003260443971     0.016133142246
       6       -0.008147763125    -0.022239405917     0.000304661742
       7       -0.001054057357     0.008154008870     0.000362712931
       8       -0.003604201858     0.013170638463     0.001007703440
       9        0.006323729127     0.003278809125     0.000493651671
      10        0.012378894003    -0.008753120931     0.001186204043
      11        0.003509234855    -0.003164705755    -0.001188651400
      12       -0.000967087498    -0.006748420805    -0.001811471862
      13        0.001341979005     0.004757838809    -0.004035654877
      14        0.008325757427    -0.006496222397     0.001328732356
      15       -0.008564265492    -0.021776344192     0.000477307735
      16        0.004707233440     0.029568927342     0.000014323892
      17        0.000832247331     0.003638791886     0.000526946389
      18       -0.000718442740     0.003920514477     0.000011940332
      19       -0.004161453210     0.001637649402     0.000419360978
      20        0.000242011004    -0.002684376697     0.001176691629
      21       -0.001887330500    -0.002525058655    -0.001137734034
      22       -0.002830017517    -0.000146318481     0.002182804171
      23        0.003267897308     0.002267274875    -0.002520758239


*** tstop() called on cpu-spot-dy-c5n2xlarge-1 at Tue Jun 22 00:16:45 2021
Module time:
	user time   =     146.56 seconds =       2.44 minutes
	system time =       3.62 seconds =       0.06 minutes
	total time  =         24 seconds =       0.40 minutes
Total time:
	user time   =     713.61 seconds =      11.89 minutes
	system time =      13.88 seconds =       0.23 minutes
	total time  =        100 seconds =       1.67 minutes

			-----------------------------------------
			 OPTKING 2.0: for geometry optimizations 
			  - R.A. King,  Bethel University        
			-----------------------------------------
	At level 1: Red. Int., RFO, no backsteps, dynamic trust

	Internal coordinates to be generated automatically.
	Detected frag 1 with atoms:  1 2 3 4 5 6 7 8 9 10 11 12 13 14 15 16 17 18 19 20
	 21 22 23
	---Fragment 1 Bond Connectivity---
	 1 : 2 12 19
	 2 : 1 3 15
	 3 : 2 4 5 6
	 4 : 3
	 5 : 3
	 6 : 3 7 16
	 7 : 6 8 12
	 8 : 7 9 18
	 9 : 8 10 17
	 10 : 9 11 13
	 11 : 10 12 20
	 12 : 1 7 11
	 13 : 10 14
	 14 : 13 21 22 23
	 15 : 2
	 16 : 6
	 17 : 9
	 18 : 8
	 19 : 1
	 20 : 11
	 21 : 14
	 22 : 14
	 23 : 14

	Assuming in current code that numbering for constraints corresponds to unified fragment.
	Frozen dihedral atom list: 
	    11    10    13    14
	     9    10    13    14
	    21    14    13    10
	---Fragment 1 Geometry and Gradient---
	 N          -1.9395127456       -2.8324951973        0.2095778629
	 C          -4.4412077795       -2.2088912451        0.4449111264
	 C          -5.0529026777        0.6819834358        0.5417293548
	 F          -6.6822113150        1.2010949819       -1.4192696812
	 F          -6.2970303286        1.1420580480        2.7801817600
	 C          -2.7716895498        2.5647780458        0.3604139125
	 C          -0.2054849351        1.4743361515        0.1209081336
	 C           1.9230288733        3.0775231046       -0.0252754103
	 C           4.3664466432        2.0856814504       -0.2548809140
	 C           4.7468088281       -0.5709919128       -0.3655054814
	 C           2.6171706326       -2.1715597055       -0.1970420665
	 C           0.1620025456       -1.1865380728        0.0447030379
	 S           7.7103037942       -2.1273514525       -0.6093028283
	 C           9.8337644749        0.0962363670       -2.1218018246
	 O          -6.0505627987       -3.8618573637        0.5674466376
	 O          -3.1281334710        4.8559556996        0.4222703177
	 H           5.9433777415        3.4046951681       -0.3320100858
	 H           1.6158293252        5.1140639425        0.0507917354
	 H          -1.6688378240       -4.7228827269        0.1585004554
	 H           2.8797726442       -4.2159977088       -0.2521786056
	 H           9.1919870265        0.4460927030       -4.0563976071
	 H           9.9108596316        1.8577502440       -1.0447240735
	 H          11.7240064956       -0.7405702661       -2.1816343331
	            -0.0095719701       -0.0110230397        0.0009098310
	             0.0080358018        0.0117131513       -0.0005423216
	             0.0127909949       -0.0038664891       -0.0011881457
	            -0.0111938223        0.0035869518       -0.0142386701
	            -0.0083133873        0.0032604440        0.0161331422
	            -0.0081477631       -0.0222394059        0.0003046617
	            -0.0010540574        0.0081540089        0.0003627129
	            -0.0036042019        0.0131706385        0.0010077034
	             0.0063237291        0.0032788091        0.0004936517
	             0.0123788940       -0.0087531209        0.0011862040
	             0.0035092349       -0.0031647058       -0.0011886514
	            -0.0009670875       -0.0067484208       -0.0018114719
	             0.0013419790        0.0047578388       -0.0040356549
	             0.0083257574       -0.0064962224        0.0013287324
	            -0.0085642655       -0.0217763442        0.0004773077
	             0.0047072334        0.0295689273        0.0000143239
	             0.0008322473        0.0036387919        0.0005269464
	            -0.0007184427        0.0039205145        0.0000119403
	            -0.0041614532        0.0016376494        0.0004193610
	             0.0002420110       -0.0026843767        0.0011766916
	            -0.0018873305       -0.0025250587       -0.0011377340
	            -0.0028300175       -0.0001463185        0.0021828042
	             0.0032678973        0.0022672749       -0.0025207582

	Previous optimization step data not found.  Starting new optimization.

	---Fragment 1 Intrafragment Coordinates---
	 - Coordinate -           - BOHR/RAD -       - ANG/DEG -
	 R(1,2)           =         2.588965	       1.370021
	 R(1,12)          =         2.674458	       1.415262
	 R(1,19)          =         1.910350	       1.010914
	 R(2,3)           =         2.956468	       1.564495
	 R(2,15)          =         2.310267	       1.222541
	 R(3,4)           =         2.601853	       1.376841
	 R(3,5)           =         2.601959	       1.376897
	 R(3,6)           =         2.963397	       1.568162
	 R(6,7)           =         2.798541	       1.480924
	 R(6,16)          =         2.319563	       1.227460
	 R(7,8)           =         2.668735	       1.412234
	 R(7,12)          =         2.687212	       1.422011
	 R(8,9)           =         2.647028	       1.400747
	 R(8,18)          =         2.060984	       1.090626
	 R(9,10)          =         2.686043	       1.421393
	 R(9,17)          =         2.057294	       1.088673
	 R(10,11)         =         2.669374	       1.412572
	 R(10,13)         =         3.356188	       1.776018
	 R(11,12)         =         2.656418	       1.405716
	 R(11,20)         =         2.061972	       1.091148
	 R(13,14)         =         3.426526	       1.813240
	 R(14,21)         =         2.068076	       1.094379
	 R(14,22)         =         2.066149	       1.093359
	 R(14,23)         =         2.068052	       1.094366
	 B(1,2,3)         =         2.024646	     116.003685
	 B(1,2,15)        =         2.100885	     120.371856
	 B(1,12,7)        =         2.094624	     120.013100
	 B(1,12,11)       =         2.098608	     120.241373
	 B(2,1,12)        =         2.235275	     128.071829
	 B(2,1,19)        =         1.958103	     112.191026
	 B(2,3,4)         =         1.875459	     107.455864
	 B(2,3,5)         =         1.875487	     107.457487
	 B(2,3,6)         =         2.048768	     117.385749
	 B(3,2,15)        =         2.157654	     123.624456
	 B(3,6,7)         =         2.052807	     117.617197
	 B(3,6,16)        =         2.103251	     120.507410
	 B(4,3,5)         =         1.889881	     108.282195
	 B(4,3,6)         =         1.885125	     108.009680
	 B(5,3,6)         =         1.884280	     107.961265
	 B(6,7,8)         =         2.096677	     120.130734
	 B(6,7,12)        =         2.110236	     120.907622
	 B(7,6,16)        =         2.127124	     121.875240
	 B(7,8,9)         =         2.112834	     121.056449
	 B(7,8,18)        =         2.063149	     118.209732
	 B(7,12,11)       =         2.089953	     119.745500
	 B(8,7,12)        =         2.076264	     118.961143
	 B(8,9,10)        =         2.100051	     120.324043
	 B(8,9,17)        =         2.060726	     118.070920
	 B(9,8,18)        =         2.107199	     120.733591
	 B(9,10,11)       =         2.068574	     118.520575
	 B(9,10,13)       =         2.197759	     125.922313
	 B(10,9,17)       =         2.122387	     121.603846
	 B(10,11,12)      =         2.118546	     121.383772
	 B(10,11,20)      =         2.084279	     119.420396
	 B(10,13,14)      =         1.852860	     106.161043
	 B(11,10,13)      =         2.016383	     115.530260
	 B(12,1,19)       =         2.089807	     119.737116
	 B(12,11,20)      =         2.080358	     119.195751
	 B(13,14,21)      =         1.907509	     109.292218
	 B(13,14,22)      =         1.924391	     110.259496
	 B(13,14,23)      =         1.892960	     108.458592
	 B(21,14,22)      =         1.933714	     110.793629
	 B(21,14,23)      =         1.901842	     108.967502
	 B(22,14,23)      =         1.902815	     109.023271
	 D(1,2,3,4)       =         2.127644	     121.904998
	 D(1,2,3,5)       =        -2.125124	    -121.760637
	 D(1,2,3,6)       =         0.000713	       0.040840
	 D(1,12,7,6)      =        -0.004826	      -0.276494
	 D(1,12,7,8)      =         3.132280	     179.466453
	 D(1,12,11,10)    =         3.141486	     179.993908
	 D(1,12,11,20)    =        -0.001923	      -0.110204
	 D(2,1,12,7)      =         0.001190	       0.068192
	 D(2,1,12,11)     =        -3.139359	    -179.872019
	 D(2,3,6,7)       =        -0.004017	      -0.230142
	 D(2,3,6,16)      =         3.140012	     179.909458
	 D(3,2,1,12)      =         0.000801	       0.045867
	 D(3,2,1,19)      =         3.141294	     179.982883
	 D(3,6,7,8)       =        -3.130935	    -179.389378
	 D(3,6,7,12)      =         0.006119	       0.350578
	 D(4,3,2,15)      =        -1.014263	     -58.112987
	 D(4,3,6,7)       =        -2.125947	    -121.807792
	 D(4,3,6,16)      =         1.018082	      58.331807
	 D(5,3,2,15)      =         1.016155	      58.221379
	 D(5,3,6,7)       =         2.117269	     121.310574
	 D(5,3,6,16)      =        -1.021887	     -58.549827
	 D(6,3,2,15)      =        -3.141194	    -179.977145
	 D(6,7,8,9)       =        -3.140481	    -179.936291
	 D(6,7,8,18)      =         0.004121	       0.236124
	 D(6,7,12,11)     =         3.135729	     179.664015
	 D(7,8,9,10)      =         0.008716	       0.499396
	 D(7,8,9,17)      =        -3.126058	    -179.109905
	 D(7,12,1,19)     =        -3.139230	    -179.864645
	 D(7,12,11,10)    =         0.000934	       0.053537
	 D(7,12,11,20)    =         3.140710	     179.949425
	 D(8,7,6,16)      =         0.008185	       0.468990
	 D(8,7,12,11)     =        -0.010350	      -0.593038
	 D(8,9,10,11)     =        -0.017888	      -1.024898
	 D(8,9,10,13)     =        -3.125004	    -179.049531
	 D(9,8,7,12)      =         0.005563	       0.318715
	 D(9,10,11,12)    =         0.013129	       0.752249
	 D(9,10,11,20)    =        -3.126642	    -179.143410
	*D(9,10,13,14)    =        -0.453469	     -25.981862
	 D(10,9,8,18)     =        -3.135962	    -179.677365
	*D(10,13,14,21)   =        -1.142546	     -65.463045
	 D(10,13,14,22)   =         0.987006	      56.551274
	 D(10,13,14,23)   =         3.069315	     175.858818
	 D(11,10,9,17)    =         3.116640	     178.570331
	*D(11,10,13,14)   =         2.721694	     155.941577
	 D(11,12,1,19)    =         0.003406	       0.195144
	 D(12,1,2,15)     =        -3.140489	    -179.936775
	 D(12,7,6,16)     =        -3.137946	    -179.791054
	 D(12,7,8,18)     =        -3.133021	    -179.508870
	 D(12,11,10,13)   =         3.123782	     178.979541
	 D(13,10,9,17)    =         0.009524	       0.545699
	 D(13,10,11,20)   =        -0.015989	      -0.916118
	 D(15,2,1,19)     =         0.000000	       0.000000
	 D(17,9,8,18)     =         0.012450	       0.713334

	Current energy   :     -1188.1150963042

	Generating empirical Hessian (Schlegel '84) for each fragment.
	Taking RFO optimization step.
	Going to follow RFO solution 1.
	Using RFO vector 1.
	Norm of target step-size    0.21019
	Projected energy change by RFO approximation:        -0.0127457823

	Back-transformation to cartesian coordinates...
	Successfully converged to displaced geometry.

	Back-transformation to cartesian coordinates to adjust frozen coordinates...
	Successfully converged to displaced geometry.

	--- Internal Coordinate Step in ANG or DEG, aJ/ANG or AJ/DEG ---
	 ---------------------------------------------------------------------------
	   Coordinate                Previous        Force       Change         New 
	   ----------                --------       ------       ------       ------
	    1 R(1,2)          =      1.370021    -0.007342    -0.000844     1.369178
	    2 R(1,12)         =      1.415262    -0.130879    -0.019309     1.395953
	    3 R(1,19)         =      1.010914     0.018538     0.002528     1.013442
	    4 R(2,3)          =      1.564495    -0.095463    -0.021234     1.543261
	    5 R(2,15)         =      1.222541    -0.177772    -0.011950     1.210591
	    6 R(3,4)          =      1.376841    -0.152251    -0.019186     1.357655
	    7 R(3,5)          =      1.376897    -0.152036    -0.019163     1.357735
	    8 R(3,6)          =      1.568162    -0.090575    -0.020526     1.547637
	    9 R(6,7)          =      1.480924    -0.075072    -0.013686     1.467238
	   10 R(6,16)         =      1.227460    -0.234913    -0.016148     1.211312
	   11 R(7,8)          =      1.412234    -0.106591    -0.015373     1.396861
	   12 R(7,12)         =      1.422011    -0.123496    -0.018894     1.403117
	   13 R(8,9)          =      1.400747    -0.138405    -0.019071     1.381676
	   14 R(8,18)         =      1.090626    -0.032996    -0.005883     1.084743
	   15 R(9,10)         =      1.421393    -0.139074    -0.020449     1.400944
	   16 R(9,17)         =      1.088673    -0.024208    -0.004289     1.084384
	   17 R(10,11)        =      1.412572    -0.111420    -0.015807     1.396765
	   18 R(10,13)        =      1.776018    -0.069043    -0.015091     1.760927
	   19 R(11,12)        =      1.405716    -0.130132    -0.018111     1.387605
	   20 R(11,20)        =      1.091148    -0.021735    -0.003882     1.087267
	   21 R(13,14)        =      1.813240     0.001752     0.000426     1.813666
	   22 R(14,21)        =      1.094379    -0.010095    -0.001822     1.092557
	   23 R(14,22)        =      1.093359    -0.007604    -0.001368     1.091991
	   24 R(14,23)        =      1.094366    -0.017368    -0.003134     1.091232
	   25 B(1,2,3)        =    116.003685    -0.000066    -0.076051   115.927634
	   26 B(1,2,15)       =    120.371856     0.000827     2.317559   122.689415
	   27 B(1,12,7)       =    120.013100     0.000222     0.442910   120.456010
	   28 B(1,12,11)      =    120.241373    -0.000390    -1.013184   119.228188
	   29 B(2,1,12)       =    128.071829    -0.000181    -0.647680   127.424150
	   30 B(2,1,19)       =    112.191026     0.000377     1.572507   113.763532
	   31 B(2,3,4)        =    107.455864    -0.000016    -0.089769   107.366094
	   32 B(2,3,5)        =    107.457487    -0.000020    -0.094913   107.362575
	   33 B(2,3,6)        =    117.385749     0.000059     0.463930   117.849679
	   34 B(3,2,15)       =    123.624456    -0.000761    -2.241519   121.382938
	   35 B(3,6,7)        =    117.617197    -0.000133    -0.334097   117.283100
	   36 B(3,6,16)       =    120.507410    -0.000746    -2.155642   118.351768
	   37 B(4,3,5)        =    108.282195    -0.000027    -0.293728   107.988467
	   38 B(4,3,6)        =    108.009680    -0.000008    -0.065447   107.944233
	   39 B(5,3,6)        =    107.961265     0.000005     0.019276   107.980542
	   40 B(6,7,8)        =    120.130734    -0.000040    -0.011781   120.118953
	   41 B(6,7,12)       =    120.907622     0.000099     0.151437   121.059059
	   42 B(7,6,16)       =    121.875240     0.000879     2.489682   124.364922
	   43 B(7,8,9)        =    121.056449     0.000062     0.168706   121.225155
	   44 B(7,8,18)       =    118.209732    -0.000020    -0.038255   118.171478
	   45 B(7,12,11)      =    119.745500     0.000168     0.565211   120.310712
	   46 B(8,7,12)       =    118.961143    -0.000059    -0.139159   118.821985
	   47 B(8,9,10)       =    120.324043    -0.000197    -0.639017   119.685026
	   48 B(8,9,17)       =    118.070920     0.000281     1.118723   119.189643
	   49 B(9,8,18)       =    120.733591    -0.000042    -0.131729   120.601862
	   50 B(9,10,11)      =    118.520575     0.000391     1.166705   119.687280
	   51 B(9,10,13)      =    125.922313    -0.000542    -1.579087   124.343226
	   52 B(10,9,17)      =    121.603846    -0.000084    -0.479313   121.124533
	   53 B(10,11,12)     =    121.383772    -0.000364    -1.122254   120.261518
	   54 B(10,11,20)     =    119.420396     0.000163     0.465473   119.885869
	   55 B(10,13,14)     =    106.161043    -0.001385    -3.981865   102.179178
	   56 B(11,10,13)     =    115.530260     0.000151     0.411639   115.941900
	   57 B(12,1,19)      =    119.737116    -0.000196    -0.924808   118.812308
	   58 B(12,11,20)     =    119.195751     0.000202     0.656843   119.852594
	   59 B(13,14,21)     =    109.292218     0.000392     1.806319   111.098538
	   60 B(13,14,22)     =    110.259496     0.000395     1.795447   112.054943
	   61 B(13,14,23)     =    108.458592    -0.000634    -3.073091   105.385501
	   62 B(21,14,22)     =    110.793629    -0.000204    -0.130572   110.663057
	   63 B(21,14,23)     =    108.967502     0.000095     0.009475   108.976977
	   64 B(22,14,23)     =    109.023271    -0.000058    -0.570665   108.452606
	   65 D(1,2,3,4)      =    121.904998     0.000005     0.176413   122.081411
	   66 D(1,2,3,5)      =   -121.760637    -0.000007    -0.257928  -122.018565
	   67 D(1,2,3,6)      =      0.040840     0.000001     0.013286     0.054126
	   68 D(1,12,7,6)     =     -0.276494     0.000003     0.341413     0.064919
	   69 D(1,12,7,8)     =    179.466453     0.000005     0.618521   180.084974
	   70 D(1,12,11,10)   =    179.993908     0.000002     0.197223   180.191131
	   71 D(1,12,11,20)   =     -0.110204     0.000003     0.352031     0.241828
	   72 D(2,1,12,7)     =      0.068192    -0.000002    -0.267956    -0.199764
	   73 D(2,1,12,11)    =   -179.872019     0.000004     0.490395  -179.381624
	   74 D(2,3,6,7)      =     -0.230142    -0.000000     0.067972    -0.162170
	   75 D(2,3,6,16)     =    179.909458    -0.000002    -0.230705   179.678752
	   76 D(3,2,1,12)     =      0.045867     0.000001     0.084451     0.130317
	   77 D(3,2,1,19)     =    179.982883     0.000001     0.110810   180.093693
	   78 D(3,6,7,8)      =   -179.389378    -0.000004    -0.525687  -179.915065
	   79 D(3,6,7,12)     =      0.350578    -0.000001    -0.245330     0.105248
	   80 D(4,3,2,15)     =    -58.112987     0.000005     0.235437   -57.877549
	   81 D(4,3,6,7)      =   -121.807792    -0.000003    -0.085800  -121.893592
	   82 D(4,3,6,16)     =     58.331807    -0.000005    -0.384478    57.947330
	   83 D(5,3,2,15)     =     58.221379    -0.000006    -0.198904    58.022475
	   84 D(5,3,6,7)      =    121.310574     0.000004     0.283824   121.594397
	   85 D(5,3,6,16)     =    -58.549827     0.000003    -0.014854   -58.564681
	   86 D(6,3,2,15)     =   -179.977145     0.000001     0.072311  -179.904834
	   87 D(6,7,8,9)      =   -179.936291    -0.000001    -0.117376  -180.053667
	   88 D(6,7,8,18)     =      0.236124     0.000001     0.154020     0.390144
	   89 D(6,7,12,11)    =    179.664015    -0.000003    -0.426126   179.237889
	   90 D(7,8,9,10)     =      0.499396     0.000001     0.118859     0.618255
	   91 D(7,8,9,17)     =   -179.109905     0.000000     0.049355  -179.060550
	   92 D(7,12,1,19)    =   -179.864645    -0.000003    -0.296863  -180.161508
	   93 D(7,12,11,10)   =      0.053537     0.000008     0.954518     1.008055
	   94 D(7,12,11,20)   =    179.949425     0.000009     1.109327   181.058752
	   95 D(8,7,6,16)     =      0.468990    -0.000002    -0.214457     0.254533
	   96 D(8,7,12,11)    =     -0.593038    -0.000001    -0.149018    -0.742056
	   97 D(8,9,10,11)    =     -1.024898     0.000005     0.671613    -0.353286
	   98 D(8,9,10,13)    =   -179.049531     0.000006     0.687232  -178.362298
	   99 D(9,8,7,12)     =      0.318715    -0.000003    -0.392244    -0.073528
	  100 D(9,10,11,12)   =      0.752249    -0.000009    -1.208423    -0.456174
	  101 D(9,10,11,20)   =   -179.143410    -0.000011    -1.363478  -180.506887
	  102 *D(9,10,13,14)  =    -25.981862     0.000000     0.000000   -25.981862
	  103 D(10,9,8,18)    =   -179.677365    -0.000002    -0.158923  -179.836288
	  104 *D(10,13,14,21) =    -65.463045    -0.000000     0.000000   -65.463045
	  105 D(10,13,14,22)  =     56.551274     0.000059     2.346916    58.898190
	  106 D(10,13,14,23)  =    175.858818     0.000007     0.794169   176.652986
	  107 D(11,10,9,17)   =    178.570331     0.000006     0.748823   179.319154
	  108 *D(11,10,13,14) =    155.941577    -0.000000    -0.000000   155.941577
	  109 D(11,12,1,19)   =      0.195144     0.000003     0.461487     0.656631
	  110 D(12,1,2,15)    =   -179.936775     0.000000     0.025463  -179.911312
	  111 D(12,7,6,16)    =   -179.791054    -0.000000     0.065901  -179.725153
	  112 D(12,7,8,18)    =   -179.508870    -0.000001    -0.120847  -179.629717
	  113 D(12,11,10,13)  =    178.979541    -0.000014    -1.263765   177.715776
	  114 D(13,10,9,17)   =      0.545699     0.000007     0.764442     1.310141
	  115 D(13,10,11,20)  =     -0.916118    -0.000015    -1.418819    -2.334938
	  116 D(15,2,1,19)    =      0.000000     0.000000     0.052063     0.052063
	  117 D(17,9,8,18)    =      0.713334    -0.000002    -0.228427     0.484907
	 ---------------------------------------------------------------------------
	Successfully symmetrized geometry.

  ==> Convergence Check <==

  Measures of convergence in internal coordinates in au.
  Criteria marked as inactive (o), active & met (*), and active & unmet ( ).
  --------------------------------------------------------------------------------------------- ~
   Step     Total Energy     Delta E     MAX Force     RMS Force      MAX Disp      RMS Disp    ~
  --------------------------------------------------------------------------------------------- ~
    Convergence Criteria             o    2.50e-03 *    1.70e-03 *    1.00e-02 *    6.70e-03 *  ~
  --------------------------------------------------------------------------------------------- ~
      1   -1188.11509630   -1.19e+03 o    2.85e-02      6.67e-03      6.95e-02      1.93e-02    ~
  ---------------------------------------------------------------------------------------------

	Writing optimization data to binary file.
	Structure for next step:
	Cartesian Geometry (in Angstrom)
	    N    -0.9301494710  -1.5567563757   0.1457975200
	    C    -2.2574243161  -1.2569079867   0.2977174254
	    C    -2.6076926049   0.2450044831   0.3545238958
	    F    -3.4875262174   0.4941539086  -0.6489927728
	    F    -3.2423398126   0.4687194447   1.5337684487
	    C    -1.4479580339   1.2628613128   0.2355154929
	    C    -0.0925319353   0.7229677635   0.0801977847
	    C     0.9982561603   1.5884628233  -0.0307952063
	    C     2.2843087400   1.1049377694  -0.1767405077
	    C     2.5040311786  -0.2777209716  -0.2279257830
	    C     1.4217559403  -1.1544926423  -0.1235004840
	    C     0.1352031355  -0.6609537616   0.0397459016
	    S     4.0914044367  -1.0267945105  -0.3693465596
	    C     5.0552326376   0.2713278292  -1.1911114385
	    O    -3.1143677719  -2.1077554206   0.3827882278
	    O    -1.7132639292   2.4441664870   0.2730315087
	    H     3.1085116265   1.8063538015  -0.2445159061
	    H     0.8108211955   2.6561876736   0.0079287535
	    H    -0.7374919285  -2.5511102856   0.1110493662
	    H     1.5876310464  -2.2279768694  -0.1711052896
	    H     4.6850561793   0.4554607123  -2.2024202900
	    H     5.0728083176   1.1973507509  -0.6126499718
	    H     6.0729576247  -0.1178028209  -1.2511220368
			--------------------------
			 OPTKING Finished Execution 
			--------------------------

    Structure for next step:
    Molecular point group: c1
    Full point group: C1

    Geometry (in Angstrom), charge = 0, multiplicity = 1:

    N           -0.952333641808    -1.525563599272     0.128405722171
    C           -2.279608492169    -1.225715209062     0.280325628221
    C           -2.629876782333     0.276197266582     0.337132098832
    F           -3.509710398266     0.525346693107    -0.666384573779
    F           -3.264523992520     0.499912229134     1.516376656329
    C           -1.470142206785     1.294054100325     0.218123695426
    C           -0.114716102808     0.754160548950     0.062805986651
    C            0.976071997053     1.619655612149    -0.048187004775
    C            2.262124581745     1.136130556352    -0.194132306760
    C            2.481847021269    -0.246528190138    -0.245317582316
    C            1.399571778720    -1.123299864276    -0.140892282921
    C            0.113018968795    -0.629760981684     0.022354103349
    S            4.069220285614    -0.995601731980    -0.386738359428
    C            5.033048490246     0.302520612801    -1.208503241571
    O           -3.136551951302    -2.076562646371     0.365396430914
    O           -1.735448103161     2.475359279130     0.255639711405
    H            3.086327471562     1.837546591208    -0.261907705421
    H            0.788637031514     2.687380466599    -0.009463044910
    H           -0.759676098559    -2.519917513092     0.093657568197
    H            1.565446885447    -2.196784095590    -0.188497088663
    H            4.662872030488     0.486653496626    -2.219812097015
    H            5.050624170376     1.228543538217    -0.630041772612
    H            6.050773481345    -0.086610038831    -1.268513840066

gradient() will perform analytic gradient computation.

*** tstart() called on cpu-spot-dy-c5n2xlarge-1
*** at Tue Jun 22 00:16:45 2021

   => Loading Basis Set <=

    Name: 6-31+G*
    Role: ORBITAL
    Keyword: BASIS
    atoms 1             entry N          line   138 file /fsx/users/francis/anaconda3/envs/poltype-dev/share/psi4/basis/6-31pgs.gbs 
    atoms 2-3, 6-12, 14 entry C          line   119 file /fsx/users/francis/anaconda3/envs/poltype-dev/share/psi4/basis/6-31pgs.gbs 
    atoms 4-5           entry F          line   176 file /fsx/users/francis/anaconda3/envs/poltype-dev/share/psi4/basis/6-31pgs.gbs 
    atoms 13            entry S          line   344 file /fsx/users/francis/anaconda3/envs/poltype-dev/share/psi4/basis/6-31pgs.gbs 
    atoms 15-16         entry O          line   157 file /fsx/users/francis/anaconda3/envs/poltype-dev/share/psi4/basis/6-31pgs.gbs 
    atoms 17-23         entry H          line    46 file /fsx/users/francis/anaconda3/envs/poltype-dev/share/psi4/basis/6-31pgs.gbs 


         ---------------------------------------------------------
                                   SCF
               by Justin Turney, Rob Parrish, Andy Simmonett
                          and Daniel G. A. Smith
                              RKS Reference
                        8 Threads,  15258 MiB Core
         ---------------------------------------------------------

  ==> Geometry <==

    Molecular point group: c1
    Full point group: C1

    Geometry (in Angstrom), charge = 0, multiplicity = 1:

       Center              X                  Y                   Z               Mass       
    ------------   -----------------  -----------------  -----------------  -----------------
         N           -0.952333641808    -1.525563599272     0.128405722171    14.003074004430
         C           -2.279608492169    -1.225715209062     0.280325628221    12.000000000000
         C           -2.629876782333     0.276197266582     0.337132098832    12.000000000000
         F           -3.509710398266     0.525346693107    -0.666384573779    18.998403162730
         F           -3.264523992520     0.499912229134     1.516376656329    18.998403162730
         C           -1.470142206785     1.294054100325     0.218123695426    12.000000000000
         C           -0.114716102808     0.754160548950     0.062805986651    12.000000000000
         C            0.976071997053     1.619655612149    -0.048187004775    12.000000000000
         C            2.262124581745     1.136130556352    -0.194132306760    12.000000000000
         C            2.481847021269    -0.246528190138    -0.245317582316    12.000000000000
         C            1.399571778720    -1.123299864276    -0.140892282921    12.000000000000
         C            0.113018968795    -0.629760981684     0.022354103349    12.000000000000
         S            4.069220285614    -0.995601731980    -0.386738359428    31.972071174400
         C            5.033048490246     0.302520612801    -1.208503241571    12.000000000000
         O           -3.136551951302    -2.076562646371     0.365396430914    15.994914619570
         O           -1.735448103161     2.475359279130     0.255639711405    15.994914619570
         H            3.086327471562     1.837546591208    -0.261907705421     1.007825032230
         H            0.788637031514     2.687380466599    -0.009463044910     1.007825032230
         H           -0.759676098559    -2.519917513092     0.093657568197     1.007825032230
         H            1.565446885447    -2.196784095590    -0.188497088663     1.007825032230
         H            4.662872030488     0.486653496626    -2.219812097015     1.007825032230
         H            5.050624170376     1.228543538217    -0.630041772612     1.007825032230
         H            6.050773481345    -0.086610038831    -1.268513840066     1.007825032230

  Running in c1 symmetry.

  Rotational constants: A =      0.03936  B =      0.00834  C =      0.00719 [cm^-1]
  Rotational constants: A =   1180.07985  B =    250.00390  C =    215.65340 [MHz]
  Nuclear repulsion = 1189.545164764574565

  Charge       = 0
  Multiplicity = 1
  Electrons    = 124
  Nalpha       = 62
  Nbeta        = 62

  ==> Algorithm <==

  SCF Algorithm Type is DF.
  DIIS enabled.
  MOM disabled.
  Fractional occupation disabled.
  Guess Type is READ.
  Energy threshold   = 1.00e-08
  Density threshold  = 1.00e-08
  Integral threshold = 0.00e+00

  ==> Primary Basis <==

  Basis Set: 6-31+G*
    Blend: 6-31+G*
    Number of shells: 144
    Number of basis function: 322
    Number of Cartesian functions: 322
    Spherical Harmonics?: false
    Max angular momentum: 2

  ==> DFT Potential <==

   => Composite Functional: WB97X-D <= 

    wB97X-D Hyb-GGA Exchange-Correlation Functional

    J.-D. Chai and M. Head-Gordon, Phys. Chem. Chem. Phys. 10, 6615 (2008)

    Deriv               =              1
    GGA                 =           TRUE
    Meta                =          FALSE

    Exchange Hybrid     =           TRUE
    MP2 Hybrid          =          FALSE

   => Exchange-Correlation Functionals <=

    1.0000   wB97D range-separated functional

   => Exact (HF) Exchange <=

    0.7780            HF,LR [omega = 0.2000]
    0.2220               HF 

   => Molecular Quadrature <=

    Radial Scheme          =       TREUTLER
    Pruning Scheme         =           FLAT
    Nuclear Scheme         =       TREUTLER

    BS radius alpha        =              1
    Pruning alpha          =              1
    Radial Points          =             75
    Spherical Points       =            302
    Total Points           =         520854
    Total Blocks           =           3880
    Max Points             =            256
    Max Functions          =            288

   => WB97X-D: Empirical Dispersion <=

    Chai and Head-Gordon Dispersion Correction
    Chai, J.-D.; Head-Gordon, M. (2010), J. Chem. Phys., 132: 6615-6620

        s6 =       1.000000

   => Loading Basis Set <=

    Name: (6-31+G* AUX)
    Role: JKFIT
    Keyword: DF_BASIS_SCF
    atoms 1             entry N          line   252 file /fsx/users/francis/anaconda3/envs/poltype-dev/share/psi4/basis/heavy-aug-cc-pvdz-jkfit.gbs 
    atoms 2-3, 6-12, 14 entry C          line   194 file /fsx/users/francis/anaconda3/envs/poltype-dev/share/psi4/basis/heavy-aug-cc-pvdz-jkfit.gbs 
    atoms 4-5           entry F          line   368 file /fsx/users/francis/anaconda3/envs/poltype-dev/share/psi4/basis/heavy-aug-cc-pvdz-jkfit.gbs 
    atoms 13            entry S          line   730 file /fsx/users/francis/anaconda3/envs/poltype-dev/share/psi4/basis/heavy-aug-cc-pvdz-jkfit.gbs 
    atoms 15-16         entry O          line   310 file /fsx/users/francis/anaconda3/envs/poltype-dev/share/psi4/basis/heavy-aug-cc-pvdz-jkfit.gbs 
    atoms 17-23         entry H          line   116 file /fsx/users/francis/anaconda3/envs/poltype-dev/share/psi4/basis/heavy-aug-cc-pvdz-jkfit.gbs 

   => Loading Basis Set <=

    Name: 6-31+G*
    Role: ORBITAL
    Keyword: BASIS
    atoms 1             entry N          line   138 file /fsx/users/francis/anaconda3/envs/poltype-dev/share/psi4/basis/6-31pgs.gbs 
    atoms 2-3, 6-12, 14 entry C          line   119 file /fsx/users/francis/anaconda3/envs/poltype-dev/share/psi4/basis/6-31pgs.gbs 
    atoms 4-5           entry F          line   176 file /fsx/users/francis/anaconda3/envs/poltype-dev/share/psi4/basis/6-31pgs.gbs 
    atoms 13            entry S          line   344 file /fsx/users/francis/anaconda3/envs/poltype-dev/share/psi4/basis/6-31pgs.gbs 
    atoms 15-16         entry O          line   157 file /fsx/users/francis/anaconda3/envs/poltype-dev/share/psi4/basis/6-31pgs.gbs 
    atoms 17-23         entry H          line    46 file /fsx/users/francis/anaconda3/envs/poltype-dev/share/psi4/basis/6-31pgs.gbs 

  Reading orbitals from file 180, no projection.

  ==> Pre-Iterations <==

   -------------------------------------------------------
    Irrep   Nso     Nmo     Nalpha   Nbeta   Ndocc  Nsocc
   -------------------------------------------------------
     A        322     322       0       0       0       0
   -------------------------------------------------------
    Total     322     322      62      62      62       0
   -------------------------------------------------------

  ==> Integral Setup <==

  ==> DiskDFJK: Density-Fitted J/K Matrices <==

    J tasked:                  Yes
    K tasked:                  Yes
    wK tasked:                 Yes
    Omega:               2.000E-01
    OpenMP threads:              8
    Integrals threads:           8
    Memory [MiB]:             8429
    Algorithm:                Core
    Integral Cache:           NONE
    Schwarz Cutoff:          1E-12
    Fitting Condition:       1E-10

   => Auxiliary Basis Set <=

  Basis Set: (6-31+G* AUX)
    Blend: HEAVY-AUG-CC-PVDZ-JKFIT
    Number of shells: 523
    Number of basis function: 1840
    Number of Cartesian functions: 1840
    Spherical Harmonics?: false
    Max angular momentum: 3

  Cached 100.0% of DFT collocation blocks in 2.944 [GiB].

  Minimum eigenvalue in the overlap matrix is 5.1568530954E-07.
  Using Symmetric Orthogonalization.

  SCF Guess: Orbitals guess was supplied from a previous computation.

  ==> Iterations <==

                           Total Energy        Delta E     RMS |[F,P]|

   @DF-RKS iter   0: -1188.30284367974969   -1.18830e+03   1.47736e-03 
   @DF-RKS iter   1: -1188.11554024462407    1.87303e-01   2.94378e-04 DIIS
   @DF-RKS iter   2: -1188.11586561703325   -3.25372e-04   3.34786e-04 DIIS
   @DF-RKS iter   3: -1188.12097726252091   -5.11165e-03   6.93779e-05 DIIS
   @DF-RKS iter   4: -1188.12115342936931   -1.76167e-04   2.23571e-05 DIIS
   @DF-RKS iter   5: -1188.12117956540010   -2.61360e-05   5.39523e-06 DIIS
   @DF-RKS iter   6: -1188.12118168184247   -2.11644e-06   1.66499e-06 DIIS
   @DF-RKS iter   7: -1188.12118190914907   -2.27307e-07   8.05170e-07 DIIS
   @DF-RKS iter   8: -1188.12118197175005   -6.26010e-08   2.64793e-07 DIIS
   @DF-RKS iter   9: -1188.12118198591588   -1.41658e-08   1.31851e-07 DIIS
   @DF-RKS iter  10: -1188.12118198863413   -2.71825e-09   6.39981e-08 DIIS
   @DF-RKS iter  11: -1188.12118198948951   -8.55380e-10   3.00284e-08 DIIS
   @DF-RKS iter  12: -1188.12118198961207   -1.22554e-10   1.50754e-08 DIIS
   @DF-RKS iter  13: -1188.12118198964413   -3.20597e-11   6.45308e-09 DIIS
  Energy and wave function converged.


  ==> Post-Iterations <==

    Orbital Energies [Eh]
    ---------------------

    Doubly Occupied:                                                      

       1A    -89.082575     2A    -24.871269     3A    -24.871250  
       4A    -19.302584     5A    -19.292317     6A    -14.541057  
       7A    -10.500039     8A    -10.453043     9A    -10.428312  
      10A    -10.405443    11A    -10.385166    12A    -10.354599  
      13A    -10.350231    14A    -10.347581    15A    -10.347449  
      16A    -10.341133    17A     -8.100244    18A     -6.050909  
      19A     -6.046590    20A     -6.040324    21A     -1.389971  
      22A     -1.328836    23A     -1.193072    24A     -1.182426  
      25A     -1.099678    26A     -1.007253    27A     -0.944697  
      28A     -0.907716    29A     -0.889413    30A     -0.869249  
      31A     -0.799351    32A     -0.766472    33A     -0.754241  
      34A     -0.745502    35A     -0.697594    36A     -0.683690  
      37A     -0.669625    38A     -0.646720    39A     -0.630159  
      40A     -0.592189    41A     -0.586655    42A     -0.568875  
      43A     -0.562933    44A     -0.558698    45A     -0.555150  
      46A     -0.554495    47A     -0.548790    48A     -0.535368  
      49A     -0.519311    50A     -0.516335    51A     -0.508161  
      52A     -0.498421    53A     -0.493682    54A     -0.483149  
      55A     -0.475463    56A     -0.443954    57A     -0.432493  
      58A     -0.395817    59A     -0.393803    60A     -0.364944  
      61A     -0.340981    62A     -0.320576  

    Virtual:                                                              

      63A     -0.043727    64A      0.014655    65A      0.041308  
      66A      0.045789    67A      0.056699    68A      0.066887  
      69A      0.067950    70A      0.074984    71A      0.080702  
      72A      0.089325    73A      0.093294    74A      0.098119  
      75A      0.104456    76A      0.112594    77A      0.113283  
      78A      0.117015    79A      0.119843    80A      0.133848  
      81A      0.136389    82A      0.141171    83A      0.145400  
      84A      0.154274    85A      0.160113    86A      0.164511  
      87A      0.169783    88A      0.173545    89A      0.178886  
      90A      0.179695    91A      0.183827    92A      0.196491  
      93A      0.197565    94A      0.200982    95A      0.202318  
      96A      0.210597    97A      0.214607    98A      0.220117  
      99A      0.224562   100A      0.235165   101A      0.237853  
     102A      0.240257   103A      0.244768   104A      0.245989  
     105A      0.250808   106A      0.251289   107A      0.259638  
     108A      0.263276   109A      0.266731   110A      0.273100  
     111A      0.277901   112A      0.287713   113A      0.290992  
     114A      0.294238   115A      0.302280   116A      0.307574  
     117A      0.309608   118A      0.311076   119A      0.320901  
     120A      0.328798   121A      0.330076   122A      0.333803  
     123A      0.337206   124A      0.344653   125A      0.357624  
     126A      0.363035   127A      0.366612   128A      0.377998  
     129A      0.384849   130A      0.389360   131A      0.391399  
     132A      0.394489   133A      0.399740   134A      0.410582  
     135A      0.413022   136A      0.418689   137A      0.425688  
     138A      0.439134   139A      0.447263   140A      0.451186  
     141A      0.459425   142A      0.473423   143A      0.478380  
     144A      0.486634   145A      0.508970   146A      0.518553  
     147A      0.532235   148A      0.532516   149A      0.542669  
     150A      0.548931   151A      0.567858   152A      0.582209  
     153A      0.599309   154A      0.609745   155A      0.618734  
     156A      0.639697   157A      0.663551   158A      0.672141  
     159A      0.693699   160A      0.710052   161A      0.723674  
     162A      0.736692   163A      0.749487   164A      0.754374  
     165A      0.772839   166A      0.777486   167A      0.787828  
     168A      0.804883   169A      0.807514   170A      0.813739  
     171A      0.834773   172A      0.851665   173A      0.870032  
     174A      0.875549   175A      0.889689   176A      0.894677  
     177A      0.900823   178A      0.918096   179A      0.932549  
     180A      0.938698   181A      0.960716   182A      0.973376  
     183A      0.980966   184A      0.997106   185A      1.014832  
     186A      1.027248   187A      1.044896   188A      1.058497  
     189A      1.075626   190A      1.084670   191A      1.096868  
     192A      1.108808   193A      1.118134   194A      1.152204  
     195A      1.156730   196A      1.174100   197A      1.198977  
     198A      1.202797   199A      1.211146   200A      1.224629  
     201A      1.234839   202A      1.253453   203A      1.268590  
     204A      1.284159   205A      1.294533   206A      1.327233  
     207A      1.330060   208A      1.335369   209A      1.346344  
     210A      1.395393   211A      1.403332   212A      1.415254  
     213A      1.417090   214A      1.423999   215A      1.430645  
     216A      1.450667   217A      1.458421   218A      1.466610  
     219A      1.476668   220A      1.487257   221A      1.510262  
     222A      1.522315   223A      1.529116   224A      1.531667  
     225A      1.563962   226A      1.602964   227A      1.630714  
     228A      1.661708   229A      1.675247   230A      1.684210  
     231A      1.717397   232A      1.749164   233A      1.760320  
     234A      1.760937   235A      1.762013   236A      1.769833  
     237A      1.778594   238A      1.789677   239A      1.792866  
     240A      1.830968   241A      1.841464   242A      1.878770  
     243A      1.893332   244A      1.899540   245A      1.916663  
     246A      1.923340   247A      1.925848   248A      1.965134  
     249A      1.970724   250A      1.975074   251A      1.983744  
     252A      2.021784   253A      2.046539   254A      2.055959  
     255A      2.067903   256A      2.070149   257A      2.094705  
     258A      2.119347   259A      2.121097   260A      2.142862  
     261A      2.177143   262A      2.179777   263A      2.187515  
     264A      2.217318   265A      2.223352   266A      2.237382  
     267A      2.255289   268A      2.265708   269A      2.280329  
     270A      2.283799   271A      2.318594   272A      2.325391  
     273A      2.327622   274A      2.348746   275A      2.364124  
     276A      2.385033   277A      2.394698   278A      2.433856  
     279A      2.480147   280A      2.490177   281A      2.530742  
     282A      2.559855   283A      2.607223   284A      2.655878  
     285A      2.691786   286A      2.700058   287A      2.736056  
     288A      2.766004   289A      2.767700   290A      2.788185  
     291A      2.796144   292A      2.841756   293A      2.849747  
     294A      2.883318   295A      2.932829   296A      2.975022  
     297A      2.989247   298A      3.056302   299A      3.158297  
     300A      3.191023   301A      3.225207   302A      3.257463  
     303A      3.374027   304A      3.427391   305A      3.517662  
     306A      3.527357   307A      4.040972   308A      4.302851  
     309A      4.318043   310A      4.351130   311A      4.367075  
     312A      4.391644   313A      4.426834   314A      4.487369  
     315A      4.492854   316A      4.532332   317A      4.603012  
     318A      4.822946   319A      4.885185   320A      5.169396  
     321A      5.716506   322A      7.264397  

    Final Occupation by Irrep:
              A 
    DOCC [    62 ]

  @DF-RKS Final Energy: -1188.12118198964413

   => Energetics <=

    Nuclear Repulsion Energy =           1189.5451647645745652
    One-Electron Energy =               -3993.0525798712283176
    Two-Electron Energy =                1704.9652188961790671
    DFT Exchange-Correlation Energy =     -89.5653394657541071
    Empirical Dispersion Energy =          -0.0136463134155822
    VV10 Nonlocal Energy =                  0.0000000000000000
    Total Energy =                      -1188.1211819896443558

Computation Completed


Properties will be evaluated at   0.000000,   0.000000,   0.000000 [a0]

Properties computed using the SCF density matrix

  Nuclear Dipole Moment: [e a0]
     X:    25.6438      Y:     0.3599      Z:    -5.0136

  Electronic Dipole Moment: [e a0]
     X:   -22.5420      Y:    -0.6674      Z:     4.4000

  Dipole Moment: [e a0]
     X:     3.1018      Y:    -0.3076      Z:    -0.6136     Total:     3.1769

  Dipole Moment: [D]
     X:     7.8841      Y:    -0.7818      Z:    -1.5596     Total:     8.0748


*** tstop() called on cpu-spot-dy-c5n2xlarge-1 at Tue Jun 22 00:17:48 2021
Module time:
	user time   =     475.58 seconds =       7.93 minutes
	system time =       6.81 seconds =       0.11 minutes
	total time  =         63 seconds =       1.05 minutes
Total time:
	user time   =    1190.96 seconds =      19.85 minutes
	system time =      20.78 seconds =       0.35 minutes
	total time  =        163 seconds =       2.72 minutes

*** tstart() called on cpu-spot-dy-c5n2xlarge-1
*** at Tue Jun 22 00:17:48 2021


         ------------------------------------------------------------
                                   SCF GRAD                          
                          Rob Parrish, Justin Turney,                
                       Andy Simmonett, and Alex Sokolov              
         ------------------------------------------------------------

  ==> Geometry <==

    Molecular point group: c1
    Full point group: C1

    Geometry (in Angstrom), charge = 0, multiplicity = 1:

       Center              X                  Y                   Z               Mass       
    ------------   -----------------  -----------------  -----------------  -----------------
         N           -0.952333641808    -1.525563599272     0.128405722171    14.003074004430
         C           -2.279608492169    -1.225715209062     0.280325628221    12.000000000000
         C           -2.629876782333     0.276197266582     0.337132098832    12.000000000000
         F           -3.509710398266     0.525346693107    -0.666384573779    18.998403162730
         F           -3.264523992520     0.499912229134     1.516376656329    18.998403162730
         C           -1.470142206785     1.294054100325     0.218123695426    12.000000000000
         C           -0.114716102808     0.754160548950     0.062805986651    12.000000000000
         C            0.976071997053     1.619655612149    -0.048187004775    12.000000000000
         C            2.262124581745     1.136130556352    -0.194132306760    12.000000000000
         C            2.481847021269    -0.246528190138    -0.245317582316    12.000000000000
         C            1.399571778720    -1.123299864276    -0.140892282921    12.000000000000
         C            0.113018968795    -0.629760981684     0.022354103349    12.000000000000
         S            4.069220285614    -0.995601731980    -0.386738359428    31.972071174400
         C            5.033048490246     0.302520612801    -1.208503241571    12.000000000000
         O           -3.136551951302    -2.076562646371     0.365396430914    15.994914619570
         O           -1.735448103161     2.475359279130     0.255639711405    15.994914619570
         H            3.086327471562     1.837546591208    -0.261907705421     1.007825032230
         H            0.788637031514     2.687380466599    -0.009463044910     1.007825032230
         H           -0.759676098559    -2.519917513092     0.093657568197     1.007825032230
         H            1.565446885447    -2.196784095590    -0.188497088663     1.007825032230
         H            4.662872030488     0.486653496626    -2.219812097015     1.007825032230
         H            5.050624170376     1.228543538217    -0.630041772612     1.007825032230
         H            6.050773481345    -0.086610038831    -1.268513840066     1.007825032230

  Nuclear repulsion = 1189.545164764574565

  ==> Basis Set <==

  Basis Set: 6-31+G*
    Blend: 6-31+G*
    Number of shells: 144
    Number of basis function: 322
    Number of Cartesian functions: 322
    Spherical Harmonics?: false
    Max angular momentum: 2

  ==> DFJKGrad: Density-Fitted SCF Gradients <==

    Gradient:                    1
    J tasked:                  Yes
    K tasked:                  Yes
    wK tasked:                 Yes
    Omega:               2.000E-01
    OpenMP threads:              8
    Integrals threads:           8
    Memory [MiB]:            11444
    Schwarz Cutoff:          0E+00
    Fitting Condition:       1E-10

   => Auxiliary Basis Set <=

  Basis Set: (6-31+G* AUX)
    Blend: HEAVY-AUG-CC-PVDZ-JKFIT
    Number of shells: 523
    Number of basis function: 1840
    Number of Cartesian functions: 1840
    Spherical Harmonics?: false
    Max angular momentum: 3

  ==> DFT Potential <==

   => Composite Functional: WB97X-D <= 

    wB97X-D Hyb-GGA Exchange-Correlation Functional

    J.-D. Chai and M. Head-Gordon, Phys. Chem. Chem. Phys. 10, 6615 (2008)

    Deriv               =              1
    GGA                 =           TRUE
    Meta                =          FALSE

    Exchange Hybrid     =           TRUE
    MP2 Hybrid          =          FALSE

   => Exchange-Correlation Functionals <=

    1.0000   wB97D range-separated functional

   => Exact (HF) Exchange <=

    0.7780            HF,LR [omega = 0.2000]
    0.2220               HF 

   => Molecular Quadrature <=

    Radial Scheme          =       TREUTLER
    Pruning Scheme         =           FLAT
    Nuclear Scheme         =       TREUTLER

    BS radius alpha        =              1
    Pruning alpha          =              1
    Radial Points          =             75
    Spherical Points       =            302
    Total Points           =         520854
    Total Blocks           =           3880
    Max Points             =            256
    Max Functions          =            288


  -Total Gradient:
     Atom            X                  Y                   Z
    ------   -----------------  -----------------  -----------------
       1        0.001508787527     0.002916840034    -0.000135273244
       2        0.000850010094     0.002507990396     0.000015697988
       3        0.005073038901    -0.000912207515    -0.000650428044
       4       -0.001468917195     0.000413552689    -0.000726730694
       5       -0.001200828006     0.000426008465     0.001023682534
       6       -0.002442495056    -0.002587188654     0.000493455921
       7        0.001550084554    -0.000494052269    -0.000232642280
       8       -0.000349150222    -0.000366616392     0.000049186278
       9       -0.001690931442    -0.003139427158     0.000925710732
      10        0.002237056671     0.003494900121     0.000178438427
      11       -0.001393370678     0.001157754228    -0.001315175247
      12        0.003928912956    -0.000542881959    -0.000467763615
      13       -0.002231388710    -0.002679026398     0.001136275453
      14       -0.001216792869     0.001771853225    -0.000784379000
      15       -0.001116995017    -0.001964186619     0.000108211603
      16        0.000478246430     0.000613848283    -0.000174982545
      17        0.000960607865     0.000575357552    -0.000009165631
      18        0.000335471418    -0.000596604618    -0.000081400151
      19       -0.001000161423    -0.000428582886     0.000028882826
      20       -0.000057964808    -0.000213764412     0.000504326551
      21        0.000792016142    -0.000873930782    -0.000654233433
      22       -0.001555164903     0.000695844184     0.000231215102
      23       -0.001122833175    -0.000317259659     0.000457951085


*** tstop() called on cpu-spot-dy-c5n2xlarge-1 at Tue Jun 22 00:18:12 2021
Module time:
	user time   =     145.51 seconds =       2.43 minutes
[...]
	 B(3,6,16)        =         2.063098	     118.206825
	 B(4,3,5)         =         1.890068	     108.292918
	 B(4,3,6)         =         1.882439	     107.855800
	 B(5,3,6)         =         1.884089	     107.950357
	 B(6,7,8)         =         2.095954	     120.089296
	 B(6,7,12)        =         2.112051	     121.011627
	 B(7,6,16)        =         2.175955	     124.673058
	 B(7,8,9)         =         2.118930	     121.405721
	 B(7,8,18)        =         2.058516	     117.944275
	 B(7,12,11)       =         2.095036	     120.036697
	 B(8,7,12)        =         2.075179	     118.899019
	 B(8,9,10)        =         2.085590	     119.495494
	 B(8,9,17)        =         2.084474	     119.431580
	 B(9,8,18)        =         2.105709	     120.648245
	 B(9,10,11)       =         2.089611	     119.725886
	 B(9,10,13)       =         2.164839	     124.036161
	 B(10,9,17)       =         2.113112	     121.072394
	 B(10,11,12)      =         2.101847	     120.426956
	 B(10,11,20)      =         2.089437	     119.715912
	 B(10,13,14)      =         1.810892	     103.756475
	 B(11,10,13)      =         2.028253	     116.210311
	 B(12,1,19)       =         2.067288	     118.446856
	 B(12,11,20)      =         2.091864	     119.854967
	 B(13,14,21)      =         1.942201	     111.279941
	 B(13,14,22)      =         1.966452	     112.669382
	 B(13,14,23)      =         1.833845	     105.071602
	 B(21,14,22)      =         1.939561	     111.128686
	 B(21,14,23)      =         1.892404	     108.426760
	 B(22,14,23)      =         1.883971	     107.943584
	 D(1,2,3,4)       =         2.124567	     121.728705
	 D(1,2,3,5)       =        -2.131354	    -122.117584
	 D(1,2,3,6)       =        -0.002433	      -0.139379
	 D(1,12,7,6)      =         0.002253	       0.129096
	 D(1,12,7,8)      =        -3.137807	    -179.783120
	 D(1,12,11,10)    =        -3.135534	    -179.652853
	 D(1,12,11,20)    =         0.015427	       0.883881
	 D(2,1,12,7)      =        -0.000417	      -0.023882
	 D(2,1,12,11)     =        -3.127437	    -179.188967
	 D(2,3,6,7)       =         0.004099	       0.234834
	 D(2,3,6,16)      =        -3.139460	    -179.877817
	 D(3,2,1,12)      =         0.000586	       0.033558
	 D(3,2,1,19)      =         3.139104	     179.857417
	 D(3,6,7,8)       =         3.136001	     179.679612
	 D(3,6,7,12)      =        -0.004042	      -0.231567
	 D(4,3,2,15)      =        -1.016317	     -58.230664
	 D(4,3,6,7)       =        -2.117701	    -121.335316
	 D(4,3,6,16)      =         1.021926	      58.552033
	 D(5,3,2,15)      =         1.010948	      57.923048
	 D(5,3,6,7)       =         2.126811	     121.857281
	 D(5,3,6,16)      =        -1.016748	     -58.255370
	 D(6,3,2,15)      =         3.139869	     179.901252
	 D(6,7,8,9)       =         3.138599	     179.828465
	 D(6,7,8,18)      =         0.005377	       0.308055
	 D(6,7,12,11)     =         3.129131	     179.285974
	 D(7,8,9,10)      =         0.010327	       0.591678
	 D(7,8,9,17)      =        -3.126685	    -179.145830
	 D(7,12,1,19)     =        -3.138828	    -179.841569
	 D(7,12,11,10)    =         0.020501	       1.174605
	 D(7,12,11,20)    =        -3.111724	    -178.288661
	 D(8,7,6,16)      =        -0.003485	      -0.199678
	 D(8,7,12,11)     =        -0.010930	      -0.626243
	 D(8,9,10,11)     =        -0.000756	      -0.043290
	 D(8,9,10,13)     =        -3.107665	    -178.056100
	 D(9,8,7,12)      =        -0.004511	      -0.258488
	 D(9,10,11,12)    =        -0.014623	      -0.837841
	 D(9,10,11,20)    =         3.117615	     178.626170
	*D(9,10,13,14)    =        -0.453469	     -25.981862
	 D(10,9,8,18)     =        -3.139861	    -179.900784
	*D(10,13,14,21)   =        -1.142546	     -65.463045
	 D(10,13,14,22)   =         1.049321	      60.121642
	 D(10,13,14,23)   =         3.096137	     177.395559
	 D(11,10,9,17)    =         3.136179	     179.689795
	*D(11,10,13,14)   =         2.721694	     155.941577
	 D(11,12,1,19)    =         0.017337	       0.993346
	 D(12,1,2,15)     =         3.141455	     179.992136
	 D(12,7,6,16)     =         3.139658	     179.889143
	 D(12,7,8,18)     =        -3.137734	    -179.778899
	 D(12,11,10,13)   =         3.094935	     177.326733
	 D(13,10,9,17)    =         0.029269	       1.676986
	 D(13,10,11,20)   =        -0.056012	      -3.209256
	 D(15,2,1,19)     =        -0.003211	      -0.184005
	 D(17,9,8,18)     =         0.006313	       0.361708

	Current energy   :     -1188.1214827929

	Energy change for the previous step:
		Projected    :        -0.0000483517
		Actual       :        -0.0000585818

	Performing BFGS update.
	Previous computed or guess Hessian on step 1.
	Steps to be used in Hessian update: 2 1
	Taking RFO optimization step.
	Going to follow RFO solution 1.
	Using RFO vector 1.
	Norm of target step-size    0.01229
	Projected energy change by RFO approximation:        -0.0000017079

	Back-transformation to cartesian coordinates...
	Successfully converged to displaced geometry.

	Back-transformation to cartesian coordinates to adjust frozen coordinates...
	Successfully converged to displaced geometry.

	--- Internal Coordinate Step in ANG or DEG, aJ/ANG or AJ/DEG ---
	 ---------------------------------------------------------------------------
	   Coordinate                Previous        Force       Change         New 
	   ----------                --------       ------       ------       ------
	    1 R(1,2)          =      1.369728    -0.000185    -0.000026     1.369703
	    2 R(1,12)         =      1.397409    -0.000106    -0.000021     1.397387
	    3 R(1,19)         =      1.013024     0.000013    -0.000001     1.013023
	    4 R(2,3)          =      1.547612     0.000037     0.000020     1.547631
	    5 R(2,15)         =      1.209049    -0.000566    -0.000033     1.209016
	    6 R(3,4)          =      1.355306     0.000077     0.000011     1.355317
	    7 R(3,5)          =      1.355222    -0.000897    -0.000106     1.355117
	    8 R(3,6)          =      1.553411    -0.000341    -0.000078     1.553334
	    9 R(6,7)          =      1.466206     0.000354     0.000060     1.466267
	   10 R(6,16)         =      1.210973    -0.002930    -0.000201     1.210772
	   11 R(7,8)          =      1.399444     0.000747     0.000105     1.399549
	   12 R(7,12)         =      1.404383    -0.000784    -0.000130     1.404254
	   13 R(8,9)          =      1.382473    -0.000564    -0.000086     1.382387
	   14 R(8,18)         =      1.085699    -0.000018    -0.000004     1.085695
	   15 R(9,10)         =      1.404140     0.000992     0.000154     1.404294
	   16 R(9,17)         =      1.083341    -0.000229    -0.000043     1.083298
	   17 R(10,11)        =      1.397457    -0.000662    -0.000111     1.397347
	   18 R(10,13)        =      1.766847     0.000703     0.000154     1.767001
	   19 R(11,12)        =      1.392388     0.000987     0.000137     1.392524
	   20 R(11,20)        =      1.087103     0.000022     0.000006     1.087109
	   21 R(13,14)        =      1.811723    -0.000180    -0.000063     1.811660
	   22 R(14,21)        =      1.092267     0.000067     0.000014     1.092281
	   23 R(14,22)        =      1.091478    -0.000060    -0.000009     1.091469
	   24 R(14,23)        =      1.093162    -0.000049    -0.000009     1.093153
	   25 B(1,2,3)        =    115.991721    -0.000001    -0.002556   115.989165
	   26 B(1,2,15)       =    122.887018    -0.000000    -0.000551   122.886467
	   27 B(1,12,7)       =    120.910167     0.000001     0.002810   120.912978
	   28 B(1,12,11)      =    119.047865    -0.000000    -0.000550   119.047315
	   29 B(2,1,12)       =    127.068211    -0.000000    -0.002182   127.066029
	   30 B(2,1,19)       =    114.484709     0.000001     0.002765   114.487474
	   31 B(2,3,4)        =    107.274069    -0.000001    -0.014045   107.260024
	   32 B(2,3,5)        =    107.255117     0.000001     0.012054   107.267172
	   33 B(2,3,6)        =    117.897824     0.000001     0.005144   117.902969
	   34 B(3,2,15)       =    121.121247     0.000001     0.002979   121.124227
	   35 B(3,6,7)        =    117.120012    -0.000003    -0.007836   117.112175
	   36 B(3,6,16)       =    118.206825     0.000001     0.004014   118.210839
	   37 B(4,3,5)        =    108.292918     0.000001     0.004720   108.297638
	   38 B(4,3,6)        =    107.855800    -0.000001    -0.016011   107.839789
	   39 B(5,3,6)        =    107.950357    -0.000000     0.008442   107.958799
	   40 B(6,7,8)        =    120.089296    -0.000001    -0.003845   120.085451
	   41 B(6,7,12)       =    121.011627     0.000001     0.003932   121.015559
	   42 B(7,6,16)       =    124.673058     0.000001     0.003678   124.676736
	   43 B(7,8,9)        =    121.405721     0.000001     0.001380   121.407101
	   44 B(7,8,18)       =    117.944275    -0.000002    -0.010943   117.933332
	   45 B(7,12,11)      =    120.036697    -0.000001    -0.001890   120.034807
	   46 B(8,7,12)       =    118.899019    -0.000000    -0.000059   118.898960
	   47 B(8,9,10)       =    119.495494     0.000000     0.001323   119.496817
	   48 B(8,9,17)       =    119.431580    -0.000001    -0.002531   119.429049
	   49 B(9,8,18)       =    120.648245     0.000002     0.009507   120.657752
	   50 B(9,10,11)      =    119.725886    -0.000002    -0.006504   119.719382
	   51 B(9,10,13)      =    124.036161     0.000000    -0.001325   124.034836
	   52 B(10,9,17)      =    121.072394     0.000000     0.001129   121.073523
	   53 B(10,11,12)     =    120.426956     0.000002     0.006163   120.433119
	   54 B(10,11,20)     =    119.715912    -0.000000     0.001764   119.717676
	   55 B(10,13,14)     =    103.756475     0.000011     0.031985   103.788461
	   56 B(11,10,13)     =    116.210311     0.000002     0.007832   116.218143
	   57 B(12,1,19)      =    118.446856    -0.000000    -0.000581   118.446275
	   58 B(12,11,20)     =    119.854967    -0.000002    -0.007929   119.847038
	   59 B(13,14,21)     =    111.279941     0.000001     0.007335   111.287276
	   60 B(13,14,22)     =    112.669382     0.000002     0.011238   112.680621
	   61 B(13,14,23)     =    105.071602     0.000003     0.014724   105.086326
	   62 B(21,14,22)     =    111.128686    -0.000001    -0.002233   111.126453
	   63 B(21,14,23)     =    108.426760    -0.000003    -0.016691   108.410070
	   64 B(22,14,23)     =    107.943584    -0.000003    -0.015612   107.927972
	   65 D(1,2,3,4)      =    121.728705    -0.000000    -0.114685   121.614020
	   66 D(1,2,3,5)      =   -122.117584     0.000000    -0.110202  -122.227786
	   67 D(1,2,3,6)      =     -0.139379     0.000000    -0.085531    -0.224911
	   68 D(1,12,7,6)     =      0.129096     0.000000     0.003429     0.132525
	   69 D(1,12,7,8)     =   -179.783120     0.000000    -0.020121  -179.803241
	   70 D(1,12,11,10)   =   -179.652853    -0.000000     0.005775  -179.647079
	   71 D(1,12,11,20)   =      0.883881    -0.000000     0.006010     0.889890
	   72 D(2,1,12,7)     =     -0.023882     0.000000     0.081866     0.057985
	   73 D(2,1,12,11)    =   -179.188967     0.000000     0.052031  -179.136936
	   74 D(2,3,6,7)      =      0.234834    -0.000000     0.157088     0.391922
	   75 D(2,3,6,16)     =   -179.877817    -0.000000     0.096654  -179.781163
	   76 D(3,2,1,12)     =      0.033558    -0.000000    -0.034566    -0.001008
	   77 D(3,2,1,19)     =    179.857417    -0.000000    -0.034118   179.823299
	   78 D(3,6,7,8)      =    179.679612    -0.000000    -0.094166   179.585446
	   79 D(3,6,7,12)     =     -0.231567    -0.000000    -0.117997    -0.349564
	   80 D(4,3,2,15)     =    -58.230664    -0.000001    -0.287969   -58.518633
	   81 D(4,3,6,7)      =   -121.335316     0.000000     0.185296  -121.150020
	   82 D(4,3,6,16)     =     58.552033     0.000000     0.124863    58.676895
	   83 D(5,3,2,15)     =     57.923048    -0.000000    -0.283486    57.639562
	   84 D(5,3,6,7)      =    121.857281     0.000000     0.183742   122.041023
	   85 D(5,3,6,16)     =    -58.255370     0.000000     0.123308   -58.132062
	   86 D(6,3,2,15)     =    179.901252    -0.000000    -0.258815   179.642437
	   87 D(6,7,8,9)      =    179.828465    -0.000000    -0.016149   179.812316
	   88 D(6,7,8,18)     =      0.308055     0.000000    -0.008595     0.299460
	   89 D(6,7,12,11)    =    179.285974     0.000000     0.033568   179.319542
	   90 D(7,8,9,10)     =      0.591678    -0.000000    -0.010330     0.581348
	   91 D(7,8,9,17)     =   -179.145830     0.000000     0.008459  -179.137371
	   92 D(7,12,1,19)    =   -179.841569     0.000000     0.081398  -179.760171
	   93 D(7,12,11,10)   =      1.174605    -0.000000    -0.023832     1.150772
	   94 D(7,12,11,20)   =   -178.288661    -0.000000    -0.023598  -178.312259
	   95 D(8,7,6,16)     =     -0.199678     0.000000    -0.029408    -0.229086
	   96 D(8,7,12,11)    =     -0.626243     0.000000     0.010019    -0.616224
	   97 D(8,9,10,11)    =     -0.043290    -0.000000    -0.003577    -0.046867
	   98 D(8,9,10,13)    =   -178.056100    -0.000000    -0.003840  -178.059940
	   99 D(9,8,7,12)     =     -0.258488    -0.000000     0.007183    -0.251305
	  100 D(9,10,11,12)   =     -0.837841     0.000000     0.020654    -0.817187
	  101 D(9,10,11,20)   =    178.626170     0.000000     0.020367   178.646538
	  102 *D(9,10,13,14)  =    -25.981862    -0.000000     0.000000   -25.981862
	  103 D(10,9,8,18)    =   -179.900784    -0.000000    -0.018187  -179.918971
	  104 *D(10,13,14,21) =    -65.463045     0.000000     0.000000   -65.463045
	  105 D(10,13,14,22)  =     60.121642     0.000000     0.011578    60.133220
	  106 D(10,13,14,23)  =    177.395559     0.000000     0.007614   177.403173
	  107 D(11,10,9,17)   =    179.689795    -0.000000    -0.022693   179.667102
	  108 *D(11,10,13,14) =    155.941577    -0.000000    -0.000000   155.941577
	  109 D(11,12,1,19)   =      0.993346     0.000000     0.051562     1.044909
	  110 D(12,1,2,15)    =    179.992136     0.000000     0.142083   180.134219
	  111 D(12,7,6,16)    =    179.889143     0.000000    -0.053238   179.835905
	  112 D(12,7,8,18)    =   -179.778899     0.000000     0.014737  -179.764162
	  113 D(12,11,10,13)  =    177.326733     0.000000     0.020744   177.347477
	  114 D(13,10,9,17)   =      1.676986    -0.000000    -0.022956     1.654030
	  115 D(13,10,11,20)  =     -3.209256     0.000000     0.020458    -3.188798
	  116 D(15,2,1,19)    =     -0.184005     0.000000     0.142532    -0.041473
	  117 D(17,9,8,18)    =      0.361708     0.000000     0.000602     0.362311
	 ---------------------------------------------------------------------------
	Successfully symmetrized geometry.

  ==> Convergence Check <==

  Measures of convergence in internal coordinates in au.
  Criteria marked as inactive (o), active & met (*), and active & unmet ( ).
  ---------------------------------------------------------------------------------------------
   Step     Total Energy     Delta E     MAX Force     RMS Force      MAX Disp      RMS Disp   
  ---------------------------------------------------------------------------------------------
    Convergence Criteria             o    2.50e-03 *    1.70e-03 *    1.00e-02 *    6.70e-03 *
  ---------------------------------------------------------------------------------------------
      3   -1188.12148279   -5.86e-05 o    3.56e-04 *    4.68e-05 *    5.03e-03 *    1.14e-03 *  ~
  ---------------------------------------------------------------------------------------------


  **** Optimization is complete! (in 3 steps) ****

  ==> Optimization Summary <==

  Measures of convergence in internal coordinates in au.
  --------------------------------------------------------------------------------------------------------------- ~
   Step         Total Energy             Delta E       MAX Force       RMS Force        MAX Disp        RMS Disp  ~
  --------------------------------------------------------------------------------------------------------------- ~
      1   -1188.121452117241  -1188.121452117241      0.00054888      0.00017348      0.04103527      0.00923515  ~
      2   -1188.121424211113      0.000027906128      0.00180860      0.00025911      0.02200007      0.00523809  ~
      3   -1188.121482792871     -0.000058581758      0.00035569      0.00004677      0.00502600      0.00113657  ~
  --------------------------------------------------------------------------------------------------------------- ~

	Writing optimization data to binary file.
	Final energy is  -1188.1214827928713
	Final (previous) structure:
	Cartesian Geometry (in Angstrom)
	    N    -0.9339907916  -1.5434302703   0.1479295813
	    C    -2.2647223374  -1.2603548557   0.3066032152
	    C    -2.6378510023   0.2408596501   0.3538453651
	    F    -3.5203926100   0.4679593628  -0.6493502906
	    F    -3.2682648651   0.4614802851   1.5330538221
	    C    -1.4902053770   1.2795299859   0.2228477600
	    C    -0.1305993581   0.7560768955   0.0578345504
	    C     0.9491957580   1.6366597677  -0.0727785931
	    C     2.2424975803   1.1729014308  -0.2261745602
	    C     2.4809470739  -0.2103108535  -0.2645660155
	    C     1.4109665190  -1.1014497843  -0.1466657800
	    C     0.1134884374  -0.6265632822   0.0258931522
	    S     4.0868024330  -0.9334444847  -0.4061817041
	    C     5.0622537349   0.3438667706  -1.2424295311
	    O    -3.1111979522  -2.1180485821   0.4047881017
	    O    -1.7756085337   2.4557607713   0.2613447392
	    H     3.0562026106   1.8831101107  -0.3105291159
	    H     0.7432966912   2.7022189082  -0.0422598214
	    H    -0.7152281791  -2.5322205900   0.1223320437
	    H     1.5929697246  -2.1719362983  -0.1988720819
	    H     4.7019547428   0.5156406544  -2.2591524027
	    H     5.1060595658   1.2768395848  -0.6776570919
	    H     6.0751150009  -0.0634658120  -1.2989641090
	Saving final (previous) structure.
			--------------------------
			 OPTKING Finished Execution 
			--------------------------

    Final optimized geometry and variables:
    Molecular point group: c1
    Full point group: C1

    Geometry (in Angstrom), charge = 0, multiplicity = 1:

    N           -0.933990795317    -1.543430276377     0.147929581911
    C           -2.264722346343    -1.260354860604     0.306603216369
    C           -2.637851012625     0.240859651068     0.353845366449
    F           -3.520392623820     0.467959364645    -0.649350293135
    F           -3.268264877916     0.461480286939     1.533053828143
    C           -1.490205382815     1.279529990965     0.222847760876
    C           -0.130599358572     0.756076898463     0.057834550645
    C            0.949195761685     1.636659774099    -0.072778593403
    C            2.242497589091     1.172901435426    -0.226174561063
    C            2.480947083655    -0.210310854341    -0.264566016542
    C            1.410966524568    -1.101449788593    -0.146665780605
    C            0.113488437807    -0.626563284657     0.025893152262
    S            4.086802449067    -0.933444488410    -0.406181705739
    C            5.062253754797     0.343866771975    -1.242429536031
    O           -3.111197964411    -2.118048590417     0.404788103283
    O           -1.775608540711     2.455760780965     0.261344740178
    H            3.056202622642     1.883110118062    -0.310529117135
    H            0.743296694167     2.702218918815    -0.042259821589
    H           -0.715228181875    -2.532220599921     0.122332044145
    H            1.592969730847    -2.171936306788    -0.198872082730
    H            4.701954761244     0.515640656465    -2.259152411538
    H            5.106059585878     1.276839589796    -0.677657094532
    H            6.075115024804    -0.063465812234    -1.298964114110

	Removing binary optimization data file.
	Cleaning optimization helper files.

    Psi4 stopped on: Tuesday, 22 June 2021 12:27AM
    Psi4 wall time for execution: 0:12:20.97

*** Psi4 exiting successfully. Buy a developer a beer!
