
    -----------------------------------------------------------------------
          Psi4: An Open-Source Ab Initio Electronic Structure Package
                               Psi4 1.3.2 release

                         Git: Rev {HEAD} ecbda83 


    R. M. Parrish, L. A. Burns, D. G. A. Smith, A. C. Simmonett,
    A. E. DePrince III, E. G. Hohenstein, U. Bozkaya, A. Yu. Sokolov,
    R. Di Remigio, R. M. Richard, J. F. Gonthier, A. M. James,
    H. R. McAlexander, A. Kumar, M. Saitow, X. Wang, B. P. Pritchard,
    P. Verma, H. F. Schaefer III, K. Patkowski, R. A. King, E. F. Valeev,
    F. A. Evangelista, J. M. Turney, T. D. Crawford, and C. D. Sherrill,
    J. Chem. Theory Comput. 13(7) pp 3185--3197 (2017).
    (doi: 10.1021/acs.jctc.7b00174)


                         Additional Contributions by
    P. Kraus, H. Kruse, M. H. Lechner, M. C. Schieber, R. A. Shaw,
    A. Alenaizan, R. Galvelis, Z. L. Glick, S. Lehtola, and J. P. Misiewicz

    -----------------------------------------------------------------------


    Psi4 started on: Tuesday, 22 June 2021 07:29AM

    Process ID: 31898
    Host:       cpu-spot-dy-c5n2xlarge-1
    PSIDATADIR: /fsx/users/francis/anaconda3/envs/poltype-dev/share/psi4
    Memory:     500.0 MiB
    Threads:    1
    
  ==> Input File <==

--------------------------------------------------------------------------
molecule { 
0 1
 N   -0.583211   -1.571569   -0.174819
 C   -1.946995   -1.594860   -0.036879
 C   -2.593276   -0.193970    0.047929
 F   -2.792610    0.201942   -1.252927
 F   -3.777837   -0.277909    0.650871
 C   -1.718352    0.910338    0.691172
 C   -0.276621    0.766435    0.446578
 C    0.593832    1.838847    0.672891
 C    1.951288    1.714004    0.444236
 C    2.473602    0.484657    0.007895
 C    1.620255   -0.598540   -0.201129
 C    0.248555   -0.459867    0.007909
 S    4.228333    0.379974   -0.202104
 C    4.398282   -0.746147   -1.614215
 O   -2.599779   -2.611289   -0.050588
 O   -2.237345    1.827417    1.284563
 H    2.613921    2.561290    0.587335
 H    0.170841    2.779590    1.011812
 H   -0.155604   -2.477372   -0.324181
 H    2.013503   -1.560889   -0.514234
 H    4.047253   -1.755501   -1.388317
 H    3.870132   -0.353804   -2.486433
 H    5.467603   -0.792143   -1.833469
}
memory 16GB
set_num_threads(8)
psi4_io.set_default_path("/scratch/Psi4-ligand")
set freeze_core True
E, wfn = energy('wb97x-d/6-311++g**',return_wfn=True)
oeprop(wfn,"WIBERG_LOWDIN_INDICES")
clean()
--------------------------------------------------------------------------

  Memory set to  14.901 GiB by Python driver.
  Threads set to 8 by Python driver.

*** tstart() called on cpu-spot-dy-c5n2xlarge-1
*** at Tue Jun 22 07:29:25 2021

   => Loading Basis Set <=

    Name: 6-311++G**
    Role: ORBITAL
    Keyword: BASIS
    atoms 1             entry N          line   140 file /fsx/users/francis/anaconda3/envs/poltype-dev/share/psi4/basis/6-311ppgss.gbs 
    atoms 2-3, 6-12, 14 entry C          line   119 file /fsx/users/francis/anaconda3/envs/poltype-dev/share/psi4/basis/6-311ppgss.gbs 
    atoms 4-5           entry F          line   182 file /fsx/users/francis/anaconda3/envs/poltype-dev/share/psi4/basis/6-311ppgss.gbs 
    atoms 13            entry S          line   419 file /fsx/users/francis/anaconda3/envs/poltype-dev/share/psi4/basis/6-311ppgss.gbs 
    atoms 15-16         entry O          line   161 file /fsx/users/francis/anaconda3/envs/poltype-dev/share/psi4/basis/6-311ppgss.gbs 
    atoms 17-23         entry H          line    42 file /fsx/users/francis/anaconda3/envs/poltype-dev/share/psi4/basis/6-311ppgss.gbs 


         ---------------------------------------------------------
                                   SCF
               by Justin Turney, Rob Parrish, Andy Simmonett
                          and Daniel G. A. Smith
                              RKS Reference
                        8 Threads,  15258 MiB Core
         ---------------------------------------------------------

  ==> Geometry <==

    Molecular point group: c1
    Full point group: C1

    Geometry (in Angstrom), charge = 0, multiplicity = 1:

       Center              X                  Y                   Z               Mass       
    ------------   -----------------  -----------------  -----------------  -----------------
         N           -0.583210943694    -1.571568857903    -0.174818909639    14.003074004430
         C           -1.946994943694    -1.594859857903    -0.036878909639    12.000000000000
         C           -2.593275943694    -0.193969857903     0.047929090361    12.000000000000
         F           -2.792609943694     0.201942142097    -1.252926909639    18.998403162730
         F           -3.777836943694    -0.277908857903     0.650871090361    18.998403162730
         C           -1.718351943694     0.910338142097     0.691172090361    12.000000000000
         C           -0.276620943694     0.766435142097     0.446578090361    12.000000000000
         C            0.593832056306     1.838847142097     0.672891090361    12.000000000000
         C            1.951288056306     1.714004142097     0.444236090361    12.000000000000
         C            2.473602056306     0.484657142097     0.007895090361    12.000000000000
         C            1.620255056306    -0.598539857903    -0.201128909639    12.000000000000
         C            0.248555056306    -0.459866857903     0.007909090361    12.000000000000
         S            4.228333056306     0.379974142097    -0.202103909639    31.972071174400
         C            4.398282056306    -0.746146857903    -1.614214909639    12.000000000000
         O           -2.599778943694    -2.611288857903    -0.050587909639    15.994914619570
         O           -2.237344943694     1.827417142097     1.284563090361    15.994914619570
         H            2.613921056306     2.561290142097     0.587335090361     1.007825032230
         H            0.170841056306     2.779590142097     1.011812090361     1.007825032230
         H           -0.155603943694    -2.477371857903    -0.324180909639     1.007825032230
         H            2.013503056306    -1.560888857903    -0.514233909639     1.007825032230
         H            4.047253056306    -1.755500857903    -1.388316909639     1.007825032230
         H            3.870132056306    -0.353803857903    -2.486432909639     1.007825032230
         H            5.467603056306    -0.792142857903    -1.833468909639     1.007825032230

  Running in c1 symmetry.

  Rotational constants: A =      0.03591  B =      0.00885  C =      0.00754 [cm^-1]
  Rotational constants: A =   1076.53491  B =    265.23189  C =    226.12015 [MHz]
  Nuclear repulsion = 1195.320930053641177

  Charge       = 0
  Multiplicity = 1
  Electrons    = 124
  Nalpha       = 62
  Nbeta        = 62

  ==> Algorithm <==

  SCF Algorithm Type is DF.
  DIIS enabled.
  MOM disabled.
  Fractional occupation disabled.
  Guess Type is SAD.
  Energy threshold   = 1.00e-06
  Density threshold  = 1.00e-06
  Integral threshold = 0.00e+00

  ==> Primary Basis <==

  Basis Set: 6-311++G**
    Blend: 6-311++G**
    Number of shells: 199
    Number of basis function: 409
    Number of Cartesian functions: 425
    Spherical Harmonics?: true
    Max angular momentum: 2

  ==> DFT Potential <==

   => Composite Functional: WB97X-D <= 

    wB97X-D Hyb-GGA Exchange-Correlation Functional

    J.-D. Chai and M. Head-Gordon, Phys. Chem. Chem. Phys. 10, 6615 (2008)

    Deriv               =              1
    GGA                 =           TRUE
    Meta                =          FALSE

    Exchange Hybrid     =           TRUE
    MP2 Hybrid          =          FALSE

   => Exchange-Correlation Functionals <=

    1.0000   wB97D range-separated functional

   => Exact (HF) Exchange <=

    0.7780            HF,LR [omega = 0.2000]
    0.2220               HF 

   => Molecular Quadrature <=

    Radial Scheme          =       TREUTLER
    Pruning Scheme         =           FLAT
    Nuclear Scheme         =       TREUTLER

    BS radius alpha        =              1
    Pruning alpha          =              1
    Radial Points          =             75
    Spherical Points       =            302
    Total Points           =         520867
    Total Blocks           =           3870
    Max Points             =            256
    Max Functions          =            317

   => WB97X-D: Empirical Dispersion <=

    Chai and Head-Gordon Dispersion Correction
    Chai, J.-D.; Head-Gordon, M. (2010), J. Chem. Phys., 132: 6615-6620

        s6 =       1.000000

   => Loading Basis Set <=

    Name: (6-311++G** AUX)
    Role: JKFIT
    Keyword: DF_BASIS_SCF
    atoms 1             entry N          line   224 file /fsx/users/francis/anaconda3/envs/poltype-dev/share/psi4/basis/aug-cc-pvtz-jkfit.gbs 
    atoms 2-3, 6-12, 14 entry C          line   162 file /fsx/users/francis/anaconda3/envs/poltype-dev/share/psi4/basis/aug-cc-pvtz-jkfit.gbs 
    atoms 4-5           entry F          line   348 file /fsx/users/francis/anaconda3/envs/poltype-dev/share/psi4/basis/aug-cc-pvtz-jkfit.gbs 
    atoms 13            entry S          line   730 file /fsx/users/francis/anaconda3/envs/poltype-dev/share/psi4/basis/aug-cc-pvtz-jkfit.gbs 
    atoms 15-16         entry O          line   286 file /fsx/users/francis/anaconda3/envs/poltype-dev/share/psi4/basis/aug-cc-pvtz-jkfit.gbs 
    atoms 17-23         entry H          line    70 file /fsx/users/francis/anaconda3/envs/poltype-dev/share/psi4/basis/aug-cc-pvtz-jkfit.gbs 

  ==> Pre-Iterations <==

   -------------------------------------------------------
    Irrep   Nso     Nmo     Nalpha   Nbeta   Ndocc  Nsocc
   -------------------------------------------------------
     A        409     409       0       0       0       0
   -------------------------------------------------------
    Total     409     409      62      62      62       0
   -------------------------------------------------------

  ==> Integral Setup <==

  ==> DiskDFJK: Density-Fitted J/K Matrices <==

    J tasked:                  Yes
    K tasked:                  Yes
    wK tasked:                 Yes
    Omega:               2.000E-01
    OpenMP threads:              8
    Integrals threads:           8
    Memory [MiB]:             7926
    Algorithm:                Core
    Integral Cache:           NONE
    Schwarz Cutoff:          1E-12
    Fitting Condition:       1E-10

   => Auxiliary Basis Set <=

  Basis Set: (6-311++G** AUX)
    Blend: AUG-CC-PVTZ-JKFIT
    Number of shells: 590
    Number of basis function: 2028
    Number of Cartesian functions: 2530
    Spherical Harmonics?: true
    Max angular momentum: 4

  Cached 100.0% of DFT collocation blocks in 3.435 [GiB].

  Minimum eigenvalue in the overlap matrix is 2.2101963365E-07.
  Using Symmetric Orthogonalization.

  SCF Guess: Superposition of Atomic Densities via on-the-fly atomic UHF.

  ==> Iterations <==

                           Total Energy        Delta E     RMS |[F,P]|

   @DF-RKS iter SAD: -1187.90952462922428   -1.18791e+03   0.00000e+00 
   @DF-RKS iter   1: -1187.73341757864932    1.76107e-01   2.87514e-03 DIIS
   @DF-RKS iter   2: -1187.79291006305812   -5.94925e-02   2.90993e-03 DIIS
   @DF-RKS iter   3: -1188.30475025325768   -5.11840e-01   6.61397e-04 DIIS
   @DF-RKS iter   4: -1188.32940284795950   -2.46526e-02   2.24555e-04 DIIS
   @DF-RKS iter   5: -1188.33301040757487   -3.60756e-03   6.02976e-05 DIIS
   @DF-RKS iter   6: -1188.33341407334092   -4.03666e-04   1.95453e-05 DIIS
   @DF-RKS iter   7: -1188.33347060161691   -5.65283e-05   7.92724e-06 DIIS
   @DF-RKS iter   8: -1188.33348802369278   -1.74221e-05   3.16630e-06 DIIS
   @DF-RKS iter   9: -1188.33349141259100   -3.38890e-06   1.47689e-06 DIIS
   @DF-RKS iter  10: -1188.33349176848287   -3.55892e-07   6.21391e-07 DIIS
  Energy and wave function converged.


  ==> Post-Iterations <==

    Orbital Energies [Eh]
    ---------------------

    Doubly Occupied:                                                      

       1A    -89.048062     2A    -24.844079     3A    -24.842635  
       4A    -19.274798     5A    -19.264885     6A    -14.517615  
       7A    -10.486508     8A    -10.439028     9A    -10.414295  
      10A    -10.391911    11A    -10.368138    12A    -10.339170  
      13A    -10.334007    14A    -10.333460    15A    -10.333355  
      16A    -10.322536    17A     -8.088649    18A     -6.038176  
      19A     -6.033887    20A     -6.027565    21A     -1.394779  
      22A     -1.332737    23A     -1.195712    24A     -1.184807  
      25A     -1.100228    26A     -1.005673    27A     -0.943152  
      28A     -0.906912    29A     -0.891003    30A     -0.867656  
      31A     -0.796612    32A     -0.770742    33A     -0.756686  
      34A     -0.741893    35A     -0.699495    36A     -0.682302  
      37A     -0.674072    38A     -0.648542    39A     -0.631354  
      40A     -0.594462    41A     -0.586003    42A     -0.573764  
      43A     -0.566250    44A     -0.563651    45A     -0.558071  
      46A     -0.551307    47A     -0.545591    48A     -0.536233  
      49A     -0.527034    50A     -0.518686    51A     -0.514226  
      52A     -0.502948    53A     -0.494283    54A     -0.482253  
      55A     -0.472673    56A     -0.445793    57A     -0.431516  
      58A     -0.398158    59A     -0.390910    60A     -0.367421  
      61A     -0.344311    62A     -0.321440  

    Virtual:                                                              

      63A     -0.045001    64A      0.010232    65A      0.023984  
      66A      0.041036    67A      0.041785    68A      0.051602  
      69A      0.057843    70A      0.065487    71A      0.068240  
      72A      0.070780    73A      0.080027    74A      0.090107  
      75A      0.095237    76A      0.100275    77A      0.106364  
      78A      0.107483    79A      0.110406    80A      0.118486  
      81A      0.123622    82A      0.129664    83A      0.133578  
      84A      0.135857    85A      0.142982    86A      0.144959  
      87A      0.150703    88A      0.154112    89A      0.159613  
      90A      0.161459    91A      0.169494    92A      0.171624  
      93A      0.176789    94A      0.178213    95A      0.185751  
      96A      0.187177    97A      0.191670    98A      0.193222  
      99A      0.197586   100A      0.201113   101A      0.204874  
     102A      0.210871   103A      0.213448   104A      0.215380  
     105A      0.221045   106A      0.226794   107A      0.231582  
     108A      0.237938   109A      0.243115   110A      0.246342  
     111A      0.252505   112A      0.253969   113A      0.261456  
     114A      0.265259   115A      0.267929   116A      0.271987  
     117A      0.278214   118A      0.280010   119A      0.284393  
     120A      0.292156   121A      0.292699   122A      0.297577  
     123A      0.301341   124A      0.307716   125A      0.315064  
     126A      0.316387   127A      0.323325   128A      0.326938  
     129A      0.334792   130A      0.343288   131A      0.345301  
     132A      0.351561   133A      0.357016   134A      0.360443  
     135A      0.364208   136A      0.368381   137A      0.371003  
     138A      0.381473   139A      0.386641   140A      0.389107  
     141A      0.392619   142A      0.394558   143A      0.404556  
     144A      0.415836   145A      0.421157   146A      0.423708  
     147A      0.439480   148A      0.444372   149A      0.450482  
     150A      0.457170   151A      0.462860   152A      0.468641  
     153A      0.478622   154A      0.484759   155A      0.494318  
     156A      0.498351   157A      0.504613   158A      0.519613  
     159A      0.527843   160A      0.535604   161A      0.551140  
     162A      0.557201   163A      0.565228   164A      0.569499  
     165A      0.586111   166A      0.598025   167A      0.605967  
     168A      0.618350   169A      0.628255   170A      0.632308  
     171A      0.646215   172A      0.651500   173A      0.663708  
     174A      0.672062   175A      0.687944   176A      0.690176  
     177A      0.707431   178A      0.720653   179A      0.728349  
     180A      0.733421   181A      0.741198   182A      0.744243  
     183A      0.748879   184A      0.754093   185A      0.757899  
     186A      0.770086   187A      0.784231   188A      0.791300  
     189A      0.801816   190A      0.809846   191A      0.816598  
     192A      0.822703   193A      0.835303   194A      0.848557  
     195A      0.859275   196A      0.869291   197A      0.875009  
     198A      0.888522   199A      0.910961   200A      0.915027  
     201A      0.930309   202A      0.947357   203A      0.949609  
     204A      0.966545   205A      0.970317   206A      0.980897  
     207A      0.987860   208A      1.005753   209A      1.011425  
     210A      1.020333   211A      1.029257   212A      1.046668  
     213A      1.065216   214A      1.083421   215A      1.096121  
     216A      1.101362   217A      1.114493   218A      1.123263  
     219A      1.146171   220A      1.167700   221A      1.177144  
     222A      1.193201   223A      1.207206   224A      1.216559  
     225A      1.224100   226A      1.238800   227A      1.256756  
     228A      1.267376   229A      1.273975   230A      1.282949  
     231A      1.294929   232A      1.330478   233A      1.339228  
     234A      1.342539   235A      1.357918   236A      1.381666  
     237A      1.392274   238A      1.436799   239A      1.483327  
     240A      1.504671   241A      1.517596   242A      1.532660  
     243A      1.541283   244A      1.550607   245A      1.557903  
     246A      1.564455   247A      1.574782   248A      1.590343  
     249A      1.602048   250A      1.608078   251A      1.618706  
     252A      1.623644   253A      1.638820   254A      1.652158  
     255A      1.659467   256A      1.671667   257A      1.678353  
     258A      1.691572   259A      1.717035   260A      1.721890  
     261A      1.735403   262A      1.757589   263A      1.762591  
     264A      1.765177   265A      1.785214   266A      1.801579  
     267A      1.820103   268A      1.830130   269A      1.832263  
     270A      1.854747   271A      1.869873   272A      1.877252  
     273A      1.901075   274A      1.929279   275A      1.943945  
     276A      1.961564   277A      1.986919   278A      1.990502  
     279A      2.001955   280A      2.012844   281A      2.018697  
     282A      2.044309   283A      2.057447   284A      2.068207  
     285A      2.082112   286A      2.102212   287A      2.107375  
     288A      2.127791   289A      2.143495   290A      2.163791  
     291A      2.178581   292A      2.191561   293A      2.238732  
     294A      2.248941   295A      2.258171   296A      2.283991  
     297A      2.299000   298A      2.321773   299A      2.343686  
     300A      2.355259   301A      2.426270   302A      2.486114  
     303A      2.503552   304A      2.525214   305A      2.527401  
     306A      2.547694   307A      2.591067   308A      2.604787  
     309A      2.618989   310A      2.642822   311A      2.649471  
     312A      2.708923   313A      2.753281   314A      2.759414  
     315A      2.786841   316A      2.801308   317A      2.809663  
     318A      2.820283   319A      2.832238   320A      2.846240  
     321A      2.851094   322A      2.895759   323A      2.899927  
     324A      2.905205   325A      2.929649   326A      2.942652  
     327A      2.967876   328A      2.975583   329A      2.988088  
     330A      3.026488   331A      3.045301   332A      3.060169  
     333A      3.080320   334A      3.086547   335A      3.105812  
     336A      3.150742   337A      3.170186   338A      3.203971  
     339A      3.278335   340A      3.290141   341A      3.306145  
     342A      3.370338   343A      3.413082   344A      3.428472  
     345A      3.437174   346A      3.478726   347A      3.526928  
     348A      3.552835   349A      3.590015   350A      3.630283  
     351A      3.645098   352A      3.683462   353A      3.698883  
     354A      3.755820   355A      3.807068   356A      3.812954  
     357A      3.842117   358A      3.854906   359A      3.869642  
     360A      3.891717   361A      3.933254   362A      3.947263  
     363A      3.965253   364A      3.999028   365A      4.023586  
     366A      4.082302   367A      4.157460   368A      4.176931  
     369A      4.246750   370A      4.272223   371A      4.347129  
     372A      4.491294   373A      4.823411   374A      4.887296  
     375A      4.917735   376A      5.049791   377A      5.165332  
     378A      5.171647   379A      5.175178   380A      5.306278  
     381A      5.317628   382A      5.825564   383A      5.871508  
     384A      6.484396   385A      6.503239   386A      6.524344  
     387A      6.531803   388A      6.654121   389A      6.911856  
     390A      8.090811   391A     17.463844   392A     17.604296  
     393A     17.645073   394A     23.630432   395A     23.748625  
     396A     23.965756   397A     23.999523   398A     24.013256  
     399A     24.027824   400A     24.037408   401A     24.132906  
     402A     24.188662   403A     24.277791   404A     35.749737  
     405A     50.127552   406A     50.143715   407A     66.918340  
     408A     66.958771   409A    189.351647  

    Final Occupation by Irrep:
              A 
    DOCC [    62 ]

  @DF-RKS Final Energy: -1188.33349176848287

   => Energetics <=

    Nuclear Repulsion Energy =           1195.3209300536411774
    One-Electron Energy =               -4005.5272097215838585
    Two-Electron Energy =                1711.6253890948994467
    DFT Exchange-Correlation Energy =     -89.7387430203247050
    Empirical Dispersion Energy =          -0.0138581751147063
    VV10 Nonlocal Energy =                  0.0000000000000000
    Total Energy =                      -1188.3334917684828724

Computation Completed


Properties will be evaluated at   0.000000,   0.000000,   0.000000 [a0]

Properties computed using the SCF density matrix

  Nuclear Dipole Moment: [e a0]
     X:    23.1887      Y:    -1.4164      Z:    -4.0691

  Electronic Dipole Moment: [e a0]
     X:   -20.4681      Y:     0.9852      Z:     3.3573

  Dipole Moment: [e a0]
     X:     2.7205      Y:    -0.4311      Z:    -0.7118     Total:     2.8449

  Dipole Moment: [D]
     X:     6.9149      Y:    -1.0958      Z:    -1.8091     Total:     7.2311


*** tstop() called on cpu-spot-dy-c5n2xlarge-1 at Tue Jun 22 07:30:56 2021
Module time:
	user time   =     657.68 seconds =      10.96 minutes
	system time =      10.52 seconds =       0.18 minutes
	total time  =         91 seconds =       1.52 minutes
Total time:
	user time   =     657.68 seconds =      10.96 minutes
	system time =      10.52 seconds =       0.18 minutes
	total time  =         91 seconds =       1.52 minutes


Properties will be evaluated at   0.000000,   0.000000,   0.000000 [a0]
OEProp: No title given, name of density matrix used for the following properties is 'SCF density'


  Wiberg Bond Indices using Orthogonal Lowdin Orbitals:

  Irrep: 1 Size: 23 x 23

                 1                   2                   3                   4                   5

    1     0.00000000000000     1.31295124728605     0.10286387586440     0.02414802520411     0.01070949447128
    2     1.31295124728605     0.00000000000000     0.88305994831644     0.11251312571466     0.10656261029987
    3     0.10286387586440     0.88305994831644     0.00000000000000     1.31159273839725     1.41210260684713
    4     0.02414802520411     0.11251312571466     1.31159273839725     0.00000000000000     0.13735858340280
    5     0.01070949447128     0.10656261029987     1.41210260684713     0.13735858340280     0.00000000000000
    6     0.03546066805175     0.07723269254119     0.89775948205543     0.11334332508804     0.10367686775485
    7     0.11827797055129     0.03691088717096     0.10185592612002     0.02327878787101     0.01184209006264
    8     0.01522231681270     0.00389560077237     0.01411122099182     0.00336941590630     0.00206574093983
    9     0.01497937672238     0.00551807892959     0.00257814431704     0.00063824359620     0.00043559650101
   10     0.01700312557997     0.00301313284136     0.00160245143077     0.00134556464310     0.00024505581508
   11     0.13215530693891     0.02576014571282     0.00460745052246     0.00131892554805     0.00043109010463
   12     1.18376545871629     0.09753316035695     0.03353438187971     0.01274171307486     0.00380779177742
   13     0.00273893703845     0.00094680684589     0.00059860984211     0.00052103639871     0.00008760834470
   14     0.00064130495360     0.00012297393212     0.00008376544494     0.00006646580147     0.00001540221115
   15     0.24406255016180     2.29952948015131     0.15014718004345     0.02761601578112     0.04342025377742
   16     0.00466131762740     0.01810219296777     0.15826279447694     0.03080196770931     0.04596408570223
   17     0.00072641714772     0.00023538737982     0.00050921364431     0.00005178271745     0.00009302672106
   18     0.00127911204799     0.00048935583901     0.00207139340171     0.00034410227533     0.00040576126915
   19     0.91488172239478     0.07270332739937     0.01395742635203     0.00156240240008     0.00208801433852
   20     0.02309657857497     0.00227301397081     0.00074236123537     0.00010482641882     0.00012851843862
   21     0.00021920448455     0.00004052522973     0.00003348466134     0.00001865591385     0.00000628921272
   22     0.00009215800720     0.00002027201897     0.00001797471424     0.00001279676059     0.00000304461920
   23     0.00006638246913     0.00001857832182     0.00001147795571     0.00000903232142     0.00000174642503

                 6                   7                   8                   9                  10

    1     0.03546066805175     0.11827797055129     0.01522231681270     0.01497937672238     0.01700312557997
    2     0.07723269254119     0.03691088717096     0.00389560077237     0.00551807892959     0.00301313284136
    3     0.89775948205543     0.10185592612002     0.01411122099182     0.00257814431704     0.00160245143077
    4     0.11334332508804     0.02327878787101     0.00336941590630     0.00063824359620     0.00134556464310
    5     0.10367686775485     0.01184209006264     0.00206574093983     0.00043559650101     0.00024505581508
    6     0.00000000000000     1.05249241785189     0.11883909361278     0.01916004906376     0.01489083371469
    7     1.05249241785189     0.00000000000000     1.34088612911008     0.13144202443899     0.11098912401460
    8     0.11883909361278     1.34088612911008     0.00000000000000     1.50889278228176     0.13602244984789
    9     0.01916004906376     0.13144202443899     1.50889278228176     0.00000000000000     1.38837653409877
   10     0.01489083371469     0.11098912401460     0.13602244984789     1.38837653409877     0.00000000000000
   11     0.01556582680999     0.11959570787097     0.12161436660472     0.12744739001091     1.42531545384386
   12     0.11499271305606     1.28640470339667     0.12380717714359     0.11265109864934     0.13047387864442
   13     0.00487538333590     0.01873399166395     0.02531497274058     0.16919268033949     1.29011512461565
   14     0.00055052899169     0.00300498351775     0.00318622058368     0.02046728030733     0.08473833325476
   15     0.01713074002071     0.00924024640711     0.00114548148277     0.00462709958231     0.00189677436587
   16     2.32976605761163     0.16181857065470     0.07071707216329     0.00558235351472     0.01555967193547
   17     0.00149717906006     0.01275381207008     0.08305257386164     0.86500418851808     0.07682956857807
   18     0.02008566750740     0.07704924672927     0.85396345928428     0.08083263227713     0.01239218639867
   19     0.00274808784452     0.01281998828506     0.00169833863148     0.00140448654008     0.00189521392834
   20     0.00169135658425     0.01118338761281     0.00551756465711     0.01193206499019     0.07391694109337
   21     0.00018715715898     0.00077141795851     0.00034786163407     0.00225407391222     0.01264097050085
   22     0.00012196496612     0.00057372060828     0.00059770258963     0.00249828392495     0.01663449658504
   23     0.00005113438084     0.00029347433454     0.00044173863084     0.00195028591692     0.01265488406107

                11                  12                  13                  14                  15

    1     0.13215530693891     1.18376545871629     0.00273893703845     0.00064130495360     0.24406255016180
    2     0.02576014571282     0.09753316035695     0.00094680684589     0.00012297393212     2.29952948015131
    3     0.00460745052246     0.03353438187971     0.00059860984211     0.00008376544494     0.15014718004345
    4     0.00131892554805     0.01274171307486     0.00052103639871     0.00006646580147     0.02761601578112
    5     0.00043109010463     0.00380779177742     0.00008760834470     0.00001540221115     0.04342025377742
    6     0.01556582680999     0.11499271305606     0.00487538333590     0.00055052899169     0.01713074002071
    7     0.11959570787097     1.28640470339667     0.01873399166395     0.00300498351775     0.00924024640711
    8     0.12161436660472     0.12380717714359     0.02531497274058     0.00318622058368     0.00114548148277
    9     0.12744739001091     0.11265109864934     0.16919268033949     0.02046728030733     0.00462709958231
   10     1.42531545384386     0.13047387864442     1.29011512461565     0.08473833325476     0.00189677436587
   11     0.00000000000000     1.37503927515664     0.15247954620494     0.04578106053406     0.01152643875746
   12     1.37503927515664     0.00000000000000     0.02314814923034     0.00424424949530     0.03037379136406
   13     0.15247954620494     0.02314814923034     0.00000000000000     1.24309039954153     0.00057317727528
   14     0.04578106053406     0.00424424949530     1.24309039954153     0.00000000000000     0.00005471467216
   15     0.01152643875746     0.03037379136406     0.00057317727528     0.00005471467216     0.00000000000000
   16     0.00465678610585     0.04180114155869     0.00488758307934     0.00061301942263     0.00713170356880
   17     0.01275410296222     0.00544713175066     0.03190796516078     0.00234054783043     0.00016700752749
   18     0.00533032480495     0.01189362102017     0.00193438183025     0.00042096923122     0.00018545570667
   19     0.02007084426824     0.06525144357488     0.00035146927158     0.00017080107346     0.02781590648486
   20     0.84626937906123     0.07736933437045     0.02187468640509     0.01836184627566     0.00063958487939
   21     0.01482965859982     0.00129829922195     0.06706687508916     0.94094566383443     0.00001977980809
   22     0.00937876451968     0.00068676307524     0.06355312800891     0.94139294446161     0.00001394030615
   23     0.00304228112659     0.00037668098194     0.07247062968390     0.94364914678368     0.00001536047975

                16                  17                  18                  19                  20

    1     0.00466131762740     0.00072641714772     0.00127911204799     0.91488172239478     0.02309657857497
    2     0.01810219296777     0.00023538737982     0.00048935583901     0.07270332739937     0.00227301397081
    3     0.15826279447694     0.00050921364431     0.00207139340171     0.01395742635203     0.00074236123537
    4     0.03080196770931     0.00005178271745     0.00034410227533     0.00156240240008     0.00010482641882
    5     0.04596408570223     0.00009302672106     0.00040576126915     0.00208801433852     0.00012851843862
    6     2.32976605761163     0.00149717906006     0.02008566750740     0.00274808784452     0.00169135658425
    7     0.16181857065470     0.01275381207008     0.07704924672927     0.01281998828506     0.01118338761281
    8     0.07071707216329     0.08305257386164     0.85396345928428     0.00169833863148     0.00551756465711
    9     0.00558235351472     0.86500418851808     0.08083263227713     0.00140448654008     0.01193206499019
   10     0.01555967193547     0.07682956857807     0.01239218639867     0.00189521392834     0.07391694109337
   11     0.00465678610585     0.01275410296222     0.00533032480495     0.02007084426824     0.84626937906123
   12     0.04180114155869     0.00544713175066     0.01189362102017     0.06525144357488     0.07736933437045
   13     0.00488758307934     0.03190796516078     0.00193438183025     0.00035146927158     0.02187468640509
   14     0.00061301942263     0.00234054783043     0.00042096923122     0.00017080107346     0.01836184627566
   15     0.00713170356880     0.00016700752749     0.00018545570667     0.02781590648486     0.00063958487939
   16     0.00000000000000     0.00036008404998     0.01881768823910     0.00050220821803     0.00057637343296
   17     0.00036008404998     0.00000000000000     0.01005683095632     0.00011133847010     0.00117276787964
   18     0.01881768823910     0.01005683095632     0.00000000000000     0.00059681073917     0.00045245056511
   19     0.00050220821803     0.00011133847010     0.00059681073917     0.00000000000000     0.00631152944059
   20     0.00057637343296     0.00117276787964     0.00045245056511     0.00631152944059     0.00000000000000
   21     0.00017518031300     0.00049186925008     0.00006310297603     0.00007490617684     0.00877380128145
   22     0.00013501140774     0.00025643683854     0.00006076990547     0.00001582899070     0.00254759572315
   23     0.00006215859018     0.00023308085939     0.00006875146689     0.00001533026370     0.00103244147726

                21                  22                  23

    1     0.00021920448455     0.00009215800720     0.00006638246913
    2     0.00004052522973     0.00002027201897     0.00001857832182
    3     0.00003348466134     0.00001797471424     0.00001147795571
    4     0.00001865591385     0.00001279676059     0.00000903232142
    5     0.00000628921272     0.00000304461920     0.00000174642503
    6     0.00018715715898     0.00012196496612     0.00005113438084
    7     0.00077141795851     0.00057372060828     0.00029347433454
    8     0.00034786163407     0.00059770258963     0.00044173863084
    9     0.00225407391222     0.00249828392495     0.00195028591692
   10     0.01264097050085     0.01663449658504     0.01265488406107
   11     0.01482965859982     0.00937876451968     0.00304228112659
   12     0.00129829922195     0.00068676307524     0.00037668098194
   13     0.06706687508916     0.06355312800891     0.07247062968390
   14     0.94094566383443     0.94139294446161     0.94364914678368
   15     0.00001977980809     0.00001394030615     0.00001536047975
   16     0.00017518031300     0.00013501140774     0.00006215859018
   17     0.00049186925008     0.00025643683854     0.00023308085939
   18     0.00006310297603     0.00006076990547     0.00006875146689
   19     0.00007490617684     0.00001582899070     0.00001533026370
   20     0.00877380128145     0.00254759572315     0.00103244147726
   21     0.00000000000000     0.03856781768544     0.04180882777979
   22     0.03856781768544     0.00000000000000     0.04162088133175
   23     0.04180882777979     0.04162088133175     0.00000000000000



  Atomic Valences: 

 #  #
 Irrep: 1
      1:  4.1600026
      2:  5.0594325
      3:  5.0921039
      4:  1.8027575
      5:  1.8814513
      6:  4.9421192
      7:  4.6422186
      8:  4.4347093
      9:  4.4778647
     10:  4.8285518
     11:  4.4749701
     12:  4.7366420
     13:  3.1964631
     14:  4.2539426
     15:  2.8773327
     16:  2.9209550
     17:  1.1060523
     18:  1.0987941
     19:  1.1470474
     20:  1.1159684
     21:  1.1306354
     22:  1.1188023
     23:  1.1198943


    Psi4 stopped on: Tuesday, 22 June 2021 07:30AM
    Psi4 wall time for execution: 0:01:30.82

*** Psi4 exiting successfully. Buy a developer a beer!
