
    -----------------------------------------------------------------------
          Psi4: An Open-Source Ab Initio Electronic Structure Package
                               Psi4 1.3.2 release

                         Git: Rev {HEAD} ecbda83 


    R. M. Parrish, L. A. Burns, D. G. A. Smith, A. C. Simmonett,
    A. E. DePrince III, E. G. Hohenstein, U. Bozkaya, A. Yu. Sokolov,
    R. Di Remigio, R. M. Richard, J. F. Gonthier, A. M. James,
    H. R. McAlexander, A. Kumar, M. Saitow, X. Wang, B. P. Pritchard,
    P. Verma, H. F. Schaefer III, K. Patkowski, R. A. King, E. F. Valeev,
    F. A. Evangelista, J. M. Turney, T. D. Crawford, and C. D. Sherrill,
    J. Chem. Theory Comput. 13(7) pp 3185--3197 (2017).
    (doi: 10.1021/acs.jctc.7b00174)


                         Additional Contributions by
    P. Kraus, H. Kruse, M. H. Lechner, M. C. Schieber, R. A. Shaw,
    A. Alenaizan, R. Galvelis, Z. L. Glick, S. Lehtola, and J. P. Misiewicz

    -----------------------------------------------------------------------


    Psi4 started on: Tuesday, 22 June 2021 12:27AM

    Process ID: 18965
    Host:       cpu-spot-dy-c5n2xlarge-1
    PSIDATADIR: /fsx/users/francis/anaconda3/envs/poltype-dev/share/psi4
    Memory:     500.0 MiB
    Threads:    1
    
  ==> Input File <==

--------------------------------------------------------------------------
molecule { 
0 1
 N   -0.956944   -1.462396    0.040156
 C   -2.296512   -1.176585    0.072557
 C   -2.671509    0.336833    0.205402
 F   -3.512534    0.649539   -0.839670
 F   -3.371585    0.486082    1.381491
 C   -1.494281    1.373322    0.209017
 C   -0.112390    0.842525    0.160714
 C    0.988054    1.728229    0.176660
 C    2.302520    1.246067    0.151584
 C    2.549879   -0.150348    0.087501
 C    1.451105   -1.036220    0.060619
 C    0.129812   -0.557324    0.088806
 S    4.158707   -0.890140    0.087916
 C    5.010591   -0.115486   -1.310961
 O   -3.122368   -2.075804    0.007987
 O   -1.724818    2.577653    0.264817
 H    3.119844    1.964631    0.203615
 H    0.787705    2.799075    0.222104
 H   -0.779215   -2.454538   -0.037090
 H    1.629709   -2.111869    0.028157
 H    4.515445   -0.410413   -2.241457
 H    4.987106    0.972937   -1.204992
 H    6.049710   -0.457824   -1.325893
}
set optking { 
  frozen_dihedral = ("
    11 10 13 14
    9 10 13 14
    21 14 13 10
  ")
}
set {
  geom_maxiter 400
  g_convergence GAU_LOOSE
  dynamic_level 1
}
memory 16GB
set_num_threads(8)
psi4_io.set_default_path("/scratch/Psi4-ligand")
for _ in range(1):
  try:
    set opt_coordinates both
    optimize('wb97x-d/6-31+G*')
    break
  except OptimizationConvergenceError:
    break
  else:
    try:
      set opt_coordinates cartesian
      optimize('wb97x-d/6-31+G*')
      break
    except OptimizationConvergenceError:
      pass
clean()
--------------------------------------------------------------------------

  Memory set to  14.901 GiB by Python driver.
  Threads set to 8 by Python driver.
gradient() will perform analytic gradient computation.

*** tstart() called on cpu-spot-dy-c5n2xlarge-1
*** at Tue Jun 22 00:27:32 2021

   => Loading Basis Set <=

    Name: 6-31+G*
    Role: ORBITAL
    Keyword: BASIS
    atoms 1             entry N          line   138 file /fsx/users/francis/anaconda3/envs/poltype-dev/share/psi4/basis/6-31pgs.gbs 
    atoms 2-3, 6-12, 14 entry C          line   119 file /fsx/users/francis/anaconda3/envs/poltype-dev/share/psi4/basis/6-31pgs.gbs 
    atoms 4-5           entry F          line   176 file /fsx/users/francis/anaconda3/envs/poltype-dev/share/psi4/basis/6-31pgs.gbs 
    atoms 13            entry S          line   344 file /fsx/users/francis/anaconda3/envs/poltype-dev/share/psi4/basis/6-31pgs.gbs 
    atoms 15-16         entry O          line   157 file /fsx/users/francis/anaconda3/envs/poltype-dev/share/psi4/basis/6-31pgs.gbs 
    atoms 17-23         entry H          line    46 file /fsx/users/francis/anaconda3/envs/poltype-dev/share/psi4/basis/6-31pgs.gbs 


         ---------------------------------------------------------
                                   SCF
               by Justin Turney, Rob Parrish, Andy Simmonett
                          and Daniel G. A. Smith
                              RKS Reference
                        8 Threads,  15258 MiB Core
         ---------------------------------------------------------

  ==> Geometry <==

    Molecular point group: c1
    Full point group: C1

    Geometry (in Angstrom), charge = 0, multiplicity = 1:

       Center              X                  Y                   Z               Mass       
    ------------   -----------------  -----------------  -----------------  -----------------
         N           -0.965178767896    -1.507087921366    -0.011130728681    14.003074004430
         C           -2.304746767896    -1.221276921366     0.021270271319    12.000000000000
         C           -2.679743767896     0.292141078634     0.154115271319    12.000000000000
         F           -3.520768767896     0.604847078634    -0.890956728681    18.998403162730
         F           -3.379819767896     0.441390078634     1.330204271319    18.998403162730
         C           -1.502515767896     1.328630078634     0.157730271319    12.000000000000
         C           -0.120624767896     0.797833078634     0.109427271319    12.000000000000
         C            0.979819232104     1.683537078634     0.125373271319    12.000000000000
         C            2.294285232104     1.201375078634     0.100297271319    12.000000000000
         C            2.541644232104    -0.195039921366     0.036214271319    12.000000000000
         C            1.442870232104    -1.080911921366     0.009332271319    12.000000000000
         C            0.121577232104    -0.602015921366     0.037519271319    12.000000000000
         S            4.150472232104    -0.934831921366     0.036629271319    31.972071174400
         C            5.002356232104    -0.160177921366    -1.362247728681    12.000000000000
         O           -3.130602767896    -2.120495921366    -0.043299728681    15.994914619570
         O           -1.733052767896     2.532961078634     0.213530271319    15.994914619570
         H            3.111609232104     1.919939078634     0.152328271319     1.007825032230
         H            0.779470232104     2.754383078634     0.170817271319     1.007825032230
         H           -0.787449767896    -2.499229921366    -0.088376728681     1.007825032230
         H            1.621474232104    -2.156560921366    -0.023129728681     1.007825032230
         H            4.507210232104    -0.455104921366    -2.292743728681     1.007825032230
         H            4.978871232104     0.928245078634    -1.256278728681     1.007825032230
         H            6.041475232104    -0.502515921366    -1.377179728681     1.007825032230

  Running in c1 symmetry.

  Rotational constants: A =      0.03739  B =      0.00818  C =      0.00712 [cm^-1]
  Rotational constants: A =   1120.78741  B =    245.19367  C =    213.35697 [MHz]
  Nuclear repulsion = 1175.994833188288112

  Charge       = 0
  Multiplicity = 1
  Electrons    = 124
  Nalpha       = 62
  Nbeta        = 62

  ==> Algorithm <==

  SCF Algorithm Type is DF.
  DIIS enabled.
  MOM disabled.
  Fractional occupation disabled.
  Guess Type is SAD.
  Energy threshold   = 1.00e-08
  Density threshold  = 1.00e-08
  Integral threshold = 0.00e+00

  ==> Primary Basis <==

  Basis Set: 6-31+G*
    Blend: 6-31+G*
    Number of shells: 144
    Number of basis function: 322
    Number of Cartesian functions: 322
    Spherical Harmonics?: false
    Max angular momentum: 2

  ==> DFT Potential <==

   => Composite Functional: WB97X-D <= 

    wB97X-D Hyb-GGA Exchange-Correlation Functional

    J.-D. Chai and M. Head-Gordon, Phys. Chem. Chem. Phys. 10, 6615 (2008)

    Deriv               =              1
    GGA                 =           TRUE
    Meta                =          FALSE

    Exchange Hybrid     =           TRUE
    MP2 Hybrid          =          FALSE

   => Exchange-Correlation Functionals <=

    1.0000   wB97D range-separated functional

   => Exact (HF) Exchange <=

    0.7780            HF,LR [omega = 0.2000]
    0.2220               HF 

   => Molecular Quadrature <=

    Radial Scheme          =       TREUTLER
    Pruning Scheme         =           FLAT
    Nuclear Scheme         =       TREUTLER

    BS radius alpha        =              1
    Pruning alpha          =              1
    Radial Points          =             75
    Spherical Points       =            302
    Total Points           =         520863
    Total Blocks           =           3862
    Max Points             =            256
    Max Functions          =            282

   => WB97X-D: Empirical Dispersion <=

    Chai and Head-Gordon Dispersion Correction
    Chai, J.-D.; Head-Gordon, M. (2010), J. Chem. Phys., 132: 6615-6620

        s6 =       1.000000

   => Loading Basis Set <=

    Name: (6-31+G* AUX)
    Role: JKFIT
    Keyword: DF_BASIS_SCF
    atoms 1             entry N          line   252 file /fsx/users/francis/anaconda3/envs/poltype-dev/share/psi4/basis/heavy-aug-cc-pvdz-jkfit.gbs 
    atoms 2-3, 6-12, 14 entry C          line   194 file /fsx/users/francis/anaconda3/envs/poltype-dev/share/psi4/basis/heavy-aug-cc-pvdz-jkfit.gbs 
    atoms 4-5           entry F          line   368 file /fsx/users/francis/anaconda3/envs/poltype-dev/share/psi4/basis/heavy-aug-cc-pvdz-jkfit.gbs 
    atoms 13            entry S          line   730 file /fsx/users/francis/anaconda3/envs/poltype-dev/share/psi4/basis/heavy-aug-cc-pvdz-jkfit.gbs 
    atoms 15-16         entry O          line   310 file /fsx/users/francis/anaconda3/envs/poltype-dev/share/psi4/basis/heavy-aug-cc-pvdz-jkfit.gbs 
    atoms 17-23         entry H          line   116 file /fsx/users/francis/anaconda3/envs/poltype-dev/share/psi4/basis/heavy-aug-cc-pvdz-jkfit.gbs 

  ==> Pre-Iterations <==

   -------------------------------------------------------
    Irrep   Nso     Nmo     Nalpha   Nbeta   Ndocc  Nsocc
   -------------------------------------------------------
     A        322     322       0       0       0       0
   -------------------------------------------------------
    Total     322     322      62      62      62       0
   -------------------------------------------------------

  ==> Integral Setup <==

  ==> DiskDFJK: Density-Fitted J/K Matrices <==

    J tasked:                  Yes
    K tasked:                  Yes
    wK tasked:                 Yes
    Omega:               2.000E-01
    OpenMP threads:              8
    Integrals threads:           8
    Memory [MiB]:             8451
    Algorithm:                Core
    Integral Cache:           NONE
    Schwarz Cutoff:          1E-12
    Fitting Condition:       1E-10

   => Auxiliary Basis Set <=

  Basis Set: (6-31+G* AUX)
    Blend: HEAVY-AUG-CC-PVDZ-JKFIT
    Number of shells: 523
    Number of basis function: 1840
    Number of Cartesian functions: 1840
    Spherical Harmonics?: false
    Max angular momentum: 3

  Cached 100.0% of DFT collocation blocks in 2.923 [GiB].

  Minimum eigenvalue in the overlap matrix is 5.9745632555E-07.
  Using Symmetric Orthogonalization.

  SCF Guess: Superposition of Atomic Densities via on-the-fly atomic UHF.

  ==> Iterations <==

                           Total Energy        Delta E     RMS |[F,P]|

   @DF-RKS iter SAD: -1187.21172664866208   -1.18721e+03   0.00000e+00 
   @DF-RKS iter   1: -1187.58388770808756   -3.72161e-01   3.30591e-03 DIIS
   @DF-RKS iter   2: -1187.59823486337336   -1.43472e-02   3.59519e-03 DIIS
   @DF-RKS iter   3: -1188.08391981001137   -4.85685e-01   8.13157e-04 DIIS
   @DF-RKS iter   4: -1188.11056704446924   -2.66472e-02   2.28188e-04 DIIS
   @DF-RKS iter   5: -1188.11315912142550   -2.59208e-03   6.68272e-05 DIIS
   @DF-RKS iter   6: -1188.11348846043916   -3.29339e-04   2.27213e-05 DIIS
   @DF-RKS iter   7: -1188.11354109041031   -5.26300e-05   9.14527e-06 DIIS
   @DF-RKS iter   8: -1188.11355713565013   -1.60452e-05   3.69597e-06 DIIS
   @DF-RKS iter   9: -1188.11356022235805   -3.08671e-06   2.27887e-06 DIIS
   @DF-RKS iter  10: -1188.11356063844437   -4.16086e-07   7.05949e-07 DIIS
   @DF-RKS iter  11: -1188.11356069265662   -5.42123e-08   2.89990e-07 DIIS
   @DF-RKS iter  12: -1188.11356070084707   -8.19045e-09   1.31609e-07 DIIS
   @DF-RKS iter  13: -1188.11356070291731   -2.07024e-09   5.11937e-08 DIIS
   @DF-RKS iter  14: -1188.11356070316856   -2.51248e-10   2.47180e-08 DIIS
   @DF-RKS iter  15: -1188.11356070323109   -6.25278e-11   1.17001e-08 DIIS
   @DF-RKS iter  16: -1188.11356070324496   -1.38698e-11   5.99817e-09 DIIS
  Energy and wave function converged.


  ==> Post-Iterations <==

    Orbital Energies [Eh]
    ---------------------

    Doubly Occupied:                                                      

       1A    -89.075205     2A    -24.876712     3A    -24.875078  
       4A    -19.310347     5A    -19.295851     6A    -14.544735  
       7A    -10.513452     8A    -10.460658     9A    -10.439830  
      10A    -10.412981    11A    -10.387779    12A    -10.359107  
      13A    -10.356659    14A    -10.355052    15A    -10.351530  
      16A    -10.349071    17A     -8.092750    18A     -6.043585  
      19A     -6.039236    20A     -6.032537    21A     -1.384196  
      22A     -1.327826    23A     -1.191070    24A     -1.179417  
      25A     -1.094325    26A     -1.000359    27A     -0.939439  
      28A     -0.904534    29A     -0.888052    30A     -0.868329  
      31A     -0.795212    32A     -0.765913    33A     -0.752990  
      34A     -0.742513    35A     -0.695462    36A     -0.680093  
      37A     -0.668450    38A     -0.645174    39A     -0.629712  
      40A     -0.590486    41A     -0.581238    42A     -0.567137  
      43A     -0.563224    44A     -0.557813    45A     -0.554723  
      46A     -0.552613    47A     -0.542212    48A     -0.538039  
      49A     -0.526523    50A     -0.518585    51A     -0.509952  
      52A     -0.500710    53A     -0.495980    54A     -0.480837  
      55A     -0.476419    56A     -0.442501    57A     -0.422822  
      58A     -0.398177    59A     -0.379553    60A     -0.371313  
      61A     -0.341889    62A     -0.324833  

    Virtual:                                                              

      63A     -0.053266    64A      0.009654    65A      0.038489  
      66A      0.045153    67A      0.054410    68A      0.061790  
      69A      0.066517    70A      0.073724    71A      0.078861  
      72A      0.089226    73A      0.092697    74A      0.095610  
      75A      0.104398    76A      0.109705    77A      0.115082  
      78A      0.116950    79A      0.122309    80A      0.132183  
      81A      0.133616    82A      0.140983    83A      0.143202  
      84A      0.152170    85A      0.155148    86A      0.160847  
      87A      0.167099    88A      0.172039    89A      0.174770  
      90A      0.179017    91A      0.183719    92A      0.186691  
      93A      0.194480    94A      0.198300    95A      0.199447  
      96A      0.205869    97A      0.208641    98A      0.213846  
      99A      0.221445   100A      0.230908   101A      0.233269  
     102A      0.239155   103A      0.242333   104A      0.244916  
     105A      0.249088   106A      0.252980   107A      0.254806  
     108A      0.261315   109A      0.262749   110A      0.270993  
     111A      0.276249   112A      0.279267   113A      0.285177  
     114A      0.285770   115A      0.296030   116A      0.302183  
     117A      0.305477   118A      0.309926   119A      0.311135  
     120A      0.317971   121A      0.320984   122A      0.328435  
     123A      0.329877   124A      0.340217   125A      0.351145  
     126A      0.359324   127A      0.361490   128A      0.372221  
     129A      0.375219   130A      0.379798   131A      0.389570  
     132A      0.391954   133A      0.394175   134A      0.401967  
     135A      0.410255   136A      0.414323   137A      0.419542  
     138A      0.431001   139A      0.444205   140A      0.445975  
     141A      0.455816   142A      0.464901   143A      0.475821  
     144A      0.488199   145A      0.501024   146A      0.507807  
     147A      0.523885   148A      0.529332   149A      0.536063  
     150A      0.544175   151A      0.555806   152A      0.575013  
     153A      0.587127   154A      0.602322   155A      0.604426  
     156A      0.634694   157A      0.661364   158A      0.676294  
     159A      0.687676   160A      0.692652   161A      0.716413  
     162A      0.738491   163A      0.746677   164A      0.749871  
     165A      0.770395   166A      0.783833   167A      0.790784  
     168A      0.800593   169A      0.803499   170A      0.819007  
     171A      0.825178   172A      0.863464   173A      0.868519  
     174A      0.875715   175A      0.881402   176A      0.893652  
     177A      0.906245   178A      0.911683   179A      0.930802  
     180A      0.934084   181A      0.956247   182A      0.964091  
     183A      0.973272   184A      0.986968   185A      1.015524  
     186A      1.030636   187A      1.044717   188A      1.051680  
     189A      1.065785   190A      1.070653   191A      1.079753  
     192A      1.090920   193A      1.109122   194A      1.144827  
     195A      1.158742   196A      1.168185   197A      1.184064  
     198A      1.196246   199A      1.206553   200A      1.213852  
     201A      1.223228   202A      1.230637   203A      1.262188  
     204A      1.282865   205A      1.295513   206A      1.319218  
     207A      1.322812   208A      1.330406   209A      1.336895  
     210A      1.373539   211A      1.394295   212A      1.404894  
     213A      1.412465   214A      1.417617   215A      1.431673  
     216A      1.447235   217A      1.456905   218A      1.463416  
     219A      1.466700   220A      1.479215   221A      1.488487  
     222A      1.511953   223A      1.521183   224A      1.532033  
     225A      1.553099   226A      1.596519   227A      1.618157  
     228A      1.648734   229A      1.660577   230A      1.667654  
     231A      1.705699   232A      1.745588   233A      1.751866  
     234A      1.755135   235A      1.759987   236A      1.767749  
     237A      1.777932   238A      1.779707   239A      1.788061  
     240A      1.817356   241A      1.836465   242A      1.860619  
     243A      1.870606   244A      1.891621   245A      1.896626  
     246A      1.905945   247A      1.917025   248A      1.945597  
     249A      1.960412   250A      1.964414   251A      1.969926  
     252A      2.004811   253A      2.036049   254A      2.042040  
     255A      2.053601   256A      2.058074   257A      2.075391  
     258A      2.087948   259A      2.097039   260A      2.111266  
     261A      2.142010   262A      2.149531   263A      2.162636  
     264A      2.198590   265A      2.205006   266A      2.208960  
     267A      2.245845   268A      2.255591   269A      2.264153  
     270A      2.271466   271A      2.303133   272A      2.305290  
     273A      2.328804   274A      2.334027   275A      2.349747  
     276A      2.363348   277A      2.378907   278A      2.400819  
     279A      2.459904   280A      2.463304   281A      2.507934  
     282A      2.512155   283A      2.564682   284A      2.624839  
     285A      2.653293   286A      2.671621   287A      2.702031  
     288A      2.723173   289A      2.733093   290A      2.764300  
     291A      2.767792   292A      2.819686   293A      2.823954  
     294A      2.850224   295A      2.894336   296A      2.942077  
     297A      2.962357   298A      3.025734   299A      3.116224  
     300A      3.151812   301A      3.210483   302A      3.232273  
     303A      3.334856   304A      3.375389   305A      3.460610  
     306A      3.481985   307A      4.038220   308A      4.276319  
     309A      4.308096   310A      4.329599   311A      4.358945  
     312A      4.371707   313A      4.409777   314A      4.465021  
     315A      4.480868   316A      4.521175   317A      4.576951  
     318A      4.775958   319A      4.832304   320A      5.105566  
     321A      5.699846   322A      7.127274  

    Final Occupation by Irrep:
              A 
    DOCC [    62 ]

  @DF-RKS Final Energy: -1188.11356070324496

   => Energetics <=

    Nuclear Repulsion Energy =           1175.9948331882881121
    One-Electron Energy =               -3966.0257132719443689
    Two-Electron Energy =                1691.3755145753241322
    DFT Exchange-Correlation Energy =     -89.4447186904880454
    Empirical Dispersion Energy =          -0.0134765044244721
    VV10 Nonlocal Energy =                  0.0000000000000000
    Total Energy =                      -1188.1135607032449570

Computation Completed


Properties will be evaluated at   0.000000,   0.000000,   0.000000 [a0]

Properties computed using the SCF density matrix

  Nuclear Dipole Moment: [e a0]
     X:    25.5849      Y:    -1.0154      Z:    -4.8323

  Electronic Dipole Moment: [e a0]
     X:   -22.7244      Y:     0.6750      Z:     4.2241

  Dipole Moment: [e a0]
     X:     2.8605      Y:    -0.3404      Z:    -0.6082     Total:     2.9442

  Dipole Moment: [D]
     X:     7.2706      Y:    -0.8652      Z:    -1.5459     Total:     7.4834


*** tstop() called on cpu-spot-dy-c5n2xlarge-1 at Tue Jun 22 00:28:48 2021
Module time:
	user time   =     567.42 seconds =       9.46 minutes
	system time =      10.27 seconds =       0.17 minutes
	total time  =         76 seconds =       1.27 minutes
Total time:
	user time   =     567.42 seconds =       9.46 minutes
	system time =      10.27 seconds =       0.17 minutes
	total time  =         76 seconds =       1.27 minutes

*** tstart() called on cpu-spot-dy-c5n2xlarge-1
*** at Tue Jun 22 00:28:48 2021


         ------------------------------------------------------------
                                   SCF GRAD                          
                          Rob Parrish, Justin Turney,                
                       Andy Simmonett, and Alex Sokolov              
         ------------------------------------------------------------

  ==> Geometry <==

    Molecular point group: c1
    Full point group: C1

    Geometry (in Angstrom), charge = 0, multiplicity = 1:

       Center              X                  Y                   Z               Mass       
    ------------   -----------------  -----------------  -----------------  -----------------
         N           -0.965178767896    -1.507087921366    -0.011130728681    14.003074004430
         C           -2.304746767896    -1.221276921366     0.021270271319    12.000000000000
         C           -2.679743767896     0.292141078634     0.154115271319    12.000000000000
         F           -3.520768767896     0.604847078634    -0.890956728681    18.998403162730
         F           -3.379819767896     0.441390078634     1.330204271319    18.998403162730
         C           -1.502515767896     1.328630078634     0.157730271319    12.000000000000
         C           -0.120624767896     0.797833078634     0.109427271319    12.000000000000
         C            0.979819232104     1.683537078634     0.125373271319    12.000000000000
         C            2.294285232104     1.201375078634     0.100297271319    12.000000000000
         C            2.541644232104    -0.195039921366     0.036214271319    12.000000000000
         C            1.442870232104    -1.080911921366     0.009332271319    12.000000000000
         C            0.121577232104    -0.602015921366     0.037519271319    12.000000000000
         S            4.150472232104    -0.934831921366     0.036629271319    31.972071174400
         C            5.002356232104    -0.160177921366    -1.362247728681    12.000000000000
         O           -3.130602767896    -2.120495921366    -0.043299728681    15.994914619570
         O           -1.733052767896     2.532961078634     0.213530271319    15.994914619570
         H            3.111609232104     1.919939078634     0.152328271319     1.007825032230
         H            0.779470232104     2.754383078634     0.170817271319     1.007825032230
         H           -0.787449767896    -2.499229921366    -0.088376728681     1.007825032230
         H            1.621474232104    -2.156560921366    -0.023129728681     1.007825032230
         H            4.507210232104    -0.455104921366    -2.292743728681     1.007825032230
         H            4.978871232104     0.928245078634    -1.256278728681     1.007825032230
         H            6.041475232104    -0.502515921366    -1.377179728681     1.007825032230

  Nuclear repulsion = 1175.994833188288112

  ==> Basis Set <==

  Basis Set: 6-31+G*
    Blend: 6-31+G*
    Number of shells: 144
    Number of basis function: 322
    Number of Cartesian functions: 322
    Spherical Harmonics?: false
    Max angular momentum: 2

  ==> DFJKGrad: Density-Fitted SCF Gradients <==

    Gradient:                    1
    J tasked:                  Yes
    K tasked:                  Yes
    wK tasked:                 Yes
    Omega:               2.000E-01
    OpenMP threads:              8
    Integrals threads:           8
    Memory [MiB]:            11444
    Schwarz Cutoff:          0E+00
    Fitting Condition:       1E-10

   => Auxiliary Basis Set <=

  Basis Set: (6-31+G* AUX)
    Blend: HEAVY-AUG-CC-PVDZ-JKFIT
    Number of shells: 523
    Number of basis function: 1840
    Number of Cartesian functions: 1840
    Spherical Harmonics?: false
    Max angular momentum: 3

  ==> DFT Potential <==

   => Composite Functional: WB97X-D <= 

    wB97X-D Hyb-GGA Exchange-Correlation Functional

    J.-D. Chai and M. Head-Gordon, Phys. Chem. Chem. Phys. 10, 6615 (2008)

    Deriv               =              1
    GGA                 =           TRUE
    Meta                =          FALSE

    Exchange Hybrid     =           TRUE
    MP2 Hybrid          =          FALSE

   => Exchange-Correlation Functionals <=

    1.0000   wB97D range-separated functional

   => Exact (HF) Exchange <=

    0.7780            HF,LR [omega = 0.2000]
    0.2220               HF 

   => Molecular Quadrature <=

    Radial Scheme          =       TREUTLER
    Pruning Scheme         =           FLAT
    Nuclear Scheme         =       TREUTLER

    BS radius alpha        =              1
    Pruning alpha          =              1
    Radial Points          =             75
    Spherical Points       =            302
    Total Points           =         520863
    Total Blocks           =           3862
    Max Points             =            256
    Max Functions          =            282


  -Total Gradient:
     Atom            X                  Y                   Z
    ------   -----------------  -----------------  -----------------
       1       -0.008919054712    -0.011362228482    -0.001174443130
       2        0.007861651082     0.012367324797     0.000779770626
       3        0.013650571538    -0.003462957517     0.001403976008
       4       -0.011729302905     0.004435338203    -0.015373385505
       5       -0.008914352686     0.001916390167     0.015320281482
       6       -0.005423873214    -0.023578026602    -0.001348662269
       7       -0.003953684638     0.009820531218     0.002611716358
       8       -0.003718646677     0.011709453384    -0.000346389621
       9        0.006801785747     0.003555559775     0.000663044716
      10        0.019659193059    -0.006110388920     0.004928415559
      11        0.002200361067    -0.004863300167    -0.001310428828
      12        0.003128351471    -0.008259952286    -0.002895843797
      13       -0.006013523866     0.005768952287    -0.009322163754
      14        0.008669813005    -0.006870402390     0.004449665014
      15       -0.008025546301    -0.022330489765    -0.001649404922
      16        0.003127917422     0.030757781454     0.001499337484
      17        0.000370328524     0.004049010651     0.000787331123
      18       -0.000640812648     0.003746794583    -0.000457369344
      19       -0.004166374136     0.001572351601    -0.000022858760
      20       -0.000203849840    -0.003132414618     0.001809493069
      21       -0.002656905302    -0.001716862294     0.000336170700
      22       -0.002713609438     0.000713497976     0.002230048824
      23        0.002367520935     0.000866134931    -0.003063932672


*** tstop() called on cpu-spot-dy-c5n2xlarge-1 at Tue Jun 22 00:29:11 2021
Module time:
	user time   =     147.65 seconds =       2.46 minutes
	system time =       3.40 seconds =       0.06 minutes
	total time  =         23 seconds =       0.38 minutes
Total time:
	user time   =     715.07 seconds =      11.92 minutes
	system time =      13.67 seconds =       0.23 minutes
	total time  =         99 seconds =       1.65 minutes

			-----------------------------------------
			 OPTKING 2.0: for geometry optimizations 
			  - R.A. King,  Bethel University        
			-----------------------------------------
	At level 1: Red. Int., RFO, no backsteps, dynamic trust

	Internal coordinates to be generated automatically.
	Detected frag 1 with atoms:  1 2 3 4 5 6 7 8 9 10 11 12 13 14 15 16 17 18 19 20
	 21 22 23
	---Fragment 1 Bond Connectivity---
	 1 : 2 12 19
	 2 : 1 3 15
	 3 : 2 4 5 6
	 4 : 3
	 5 : 3
	 6 : 3 7 16
	 7 : 6 8 12
	 8 : 7 9 18
	 9 : 8 10 17
	 10 : 9 11 13
	 11 : 10 12 20
	 12 : 1 7 11
	 13 : 10 14
	 14 : 13 21 22 23
	 15 : 2
	 16 : 6
	 17 : 9
	 18 : 8
	 19 : 1
	 20 : 11
	 21 : 14
	 22 : 14
	 23 : 14

	Assuming in current code that numbering for constraints corresponds to unified fragment.
	Frozen dihedral atom list: 
	    11    10    13    14
	     9    10    13    14
	    21    14    13    10
	---Fragment 1 Geometry and Gradient---
	 N          -1.8239235334       -2.8479834184       -0.0210340288
	 C          -4.3553401799       -2.3078789047        0.0401949874
	 C          -5.0639818077        0.5520666286        0.2912356545
	 F          -6.6532887224        1.1429953264       -1.6836642068
	 F          -6.3869337147        0.8341063631        2.5137217637
	 C          -2.8393433005        2.5107469707        0.2980670145
	 C          -0.2279477753        1.5076860124        0.2067875734
	 C           1.8515900011        3.1814240007        0.2369211462
	 C           4.3355707424        2.2702698726        0.1895343739
	 C           4.8030115070       -0.3685720349        0.0684350546
	 C           2.7266295733       -2.0426274971        0.0176354369
	 C           0.2297476718       -1.1376452145        0.0709011472
	 S           7.8432558100       -1.7665763047        0.0692192910
	 C           9.4530832607       -0.3026924027       -2.5742751222
	 O          -5.9159818389       -4.0071565415       -0.0818246285
	 O          -3.2749950923        4.7866027251        0.4035137323
	 H           5.8800892581        3.6281590362        0.2878587140
	 H           1.4729852616        5.2050296632        0.3227978603
	 H          -1.4880643989       -4.7228600759       -0.1670078131
	 H           3.0641422182       -4.0753095142       -0.0437088526
	 H           8.5173929285       -0.8600236597       -4.3326577231
	 H           9.4087030426        1.7541289759       -2.3740227344
	 H          11.4167335824       -0.9496174651       -2.6024925127
	            -0.0089190547       -0.0113622285       -0.0011744431
	             0.0078616511        0.0123673248        0.0007797706
	             0.0136505715       -0.0034629575        0.0014039760
	            -0.0117293029        0.0044353382       -0.0153733855
	            -0.0089143527        0.0019163902        0.0153202815
	            -0.0054238732       -0.0235780266       -0.0013486623
	            -0.0039536846        0.0098205312        0.0026117164
	            -0.0037186467        0.0117094534       -0.0003463896
	             0.0068017857        0.0035555598        0.0006630447
	             0.0196591931       -0.0061103889        0.0049284156
	             0.0022003611       -0.0048633002       -0.0013104288
	             0.0031283515       -0.0082599523       -0.0028958438
	            -0.0060135239        0.0057689523       -0.0093221638
	             0.0086698130       -0.0068704024        0.0044496650
	            -0.0080255463       -0.0223304898       -0.0016494049
	             0.0031279174        0.0307577815        0.0014993375
	             0.0003703285        0.0040490107        0.0007873311
	            -0.0006408126        0.0037467946       -0.0004573693
	            -0.0041663741        0.0015723516       -0.0000228588
	            -0.0002038498       -0.0031324146        0.0018094931
	            -0.0026569053       -0.0017168623        0.0003361707
	            -0.0027136094        0.0007134980        0.0022300488
	             0.0023675209        0.0008661349       -0.0030639327

	Previous optimization step data not found.  Starting new optimization.

	---Fragment 1 Intrafragment Coordinates---
	 - Coordinate -           - BOHR/RAD -       - ANG/DEG -
	 R(1,2)           =         2.589118	       1.370102
	 R(1,12)          =         2.674187	       1.415119
	 R(1,19)          =         1.910307	       1.010891
	 R(2,3)           =         2.957107	       1.564834
	 R(2,15)          =         2.310419	       1.222621
	 R(3,4)           =         2.602945	       1.377419
	 R(3,5)           =         2.601767	       1.376796
	 R(3,6)           =         2.964033	       1.568499
	 R(6,7)           =         2.798902	       1.481115
	 R(6,16)          =         2.319576	       1.227467
	 R(7,8)           =         2.669604	       1.412693
	 R(7,12)          =         2.688071	       1.422466
	 R(8,9)           =         2.646244	       1.400332
	 R(8,18)          =         2.060509	       1.090374
	 R(9,10)          =         2.682658	       1.419601
	 R(9,17)          =         2.058900	       1.089523
	 R(10,11)         =         2.667659	       1.411664
	 R(10,13)         =         3.346267	       1.770768
	 R(11,12)         =         2.656360	       1.405685
	 R(11,20)         =         2.061425	       1.090859
	 R(13,14)         =         3.423823	       1.811809
	 R(14,21)         =         2.068343	       1.094520
	 R(14,22)         =         2.067023	       1.093822
	 R(14,23)         =         2.067663	       1.094160
	 B(1,2,3)         =         2.024234	     115.980076
	 B(1,2,15)        =         2.101049	     120.381216
	 B(1,12,7)        =         2.094836	     120.025273
	 B(1,12,11)       =         2.098179	     120.216778
	 B(2,1,12)        =         2.235232	     128.069336
	 B(2,1,19)        =         1.958906	     112.237069
	 B(2,3,4)         =         1.877033	     107.546085
	 B(2,3,5)         =         1.874663	     107.410302
	 B(2,3,6)         =         2.048159	     117.350888
	 B(3,2,15)        =         2.157874	     123.637061
	 B(3,6,7)         =         2.052588	     117.604605
	 B(3,6,16)        =         2.103079	     120.497569
	 B(4,3,5)         =         1.889182	     108.242159
	 B(4,3,6)         =         1.885985	     108.058977
	 B(5,3,6)         =         1.883923	     107.940855
	 B(6,7,8)         =         2.096391	     120.114330
	 B(6,7,12)        =         2.109693	     120.876509
	 B(7,6,16)        =         2.127438	     121.893195
	 B(7,8,9)         =         2.111951	     121.005902
	 B(7,8,18)        =         2.063571	     118.233935
	 B(7,12,11)       =         2.090161	     119.757400
	 B(8,7,12)        =         2.077078	     119.007814
	 B(8,9,10)        =         2.097938	     120.203007
	 B(8,9,17)        =         2.067155	     118.439231
	 B(9,8,18)        =         2.107581	     120.755523
	 B(9,10,11)       =         2.074329	     118.850301
	 B(9,10,13)       =         2.176397	     124.698389
	 B(10,9,17)       =         2.117873	     121.345160
	 B(10,11,12)      =         2.114664	     121.161332
	 B(10,11,20)      =         2.085085	     119.466582
	 B(10,13,14)      =         1.821802	     104.381586
	 B(11,10,13)      =         2.031974	     116.423558
	 B(12,1,19)       =         2.088999	     119.690833
	 B(12,11,20)      =         2.083379	     119.368827
	 B(13,14,21)      =         1.905480	     109.175934
	 B(13,14,22)      =         1.918302	     109.910589
	 B(13,14,23)      =         1.900006	     108.862321
	 B(21,14,22)      =         1.918539	     109.924171
	 B(21,14,23)      =         1.911044	     109.494731
	 B(22,14,23)      =         1.910328	     109.453750
	 D(1,2,3,4)       =         2.185513	     125.220660
	 D(1,2,3,5)       =        -2.067689	    -118.469839
	 D(1,2,3,6)       =         0.056597	       3.242742
	 D(1,12,7,6)      =         0.018287	       1.047745
	 D(1,12,7,8)      =        -3.115944	    -178.530445
	 D(1,12,11,10)    =         3.124490	     179.020067
	 D(1,12,11,20)    =        -0.028627	      -1.640211
	 D(2,1,12,7)      =        -0.018480	      -1.058814
	 D(2,1,12,11)     =         3.127829	     179.211399
	 D(2,3,6,7)       =        -0.056511	      -3.237860
	 D(2,3,6,16)      =         3.098489	     177.530342
	 D(3,2,1,12)      =        -0.020783	      -1.190788
	 D(3,2,1,19)      =         3.131531	     179.423508
	 D(3,6,7,8)       =        -3.129271	    -179.294012
	 D(3,6,7,12)      =         0.019765	       1.132444
	 D(4,3,2,15)      =        -0.964220	     -55.245762
	 D(4,3,6,7)       =        -2.180800	    -124.950618
	 D(4,3,6,16)      =         0.974201	      55.817584
	 D(5,3,2,15)      =         1.065763	      61.063739
	 D(5,3,6,7)       =         2.062973	     118.199628
	 D(5,3,6,16)      =        -1.065212	     -61.032170
	 D(6,3,2,15)      =        -3.093137	    -177.223680
	 D(6,7,8,9)       =         3.125009	     179.049809
	 D(6,7,8,18)      =        -0.003007	      -0.172261
	 D(6,7,12,11)     =        -3.128000	    -179.221221
	 D(7,8,9,10)      =         0.017890	       1.025012
	 D(7,8,9,17)      =        -3.101468	    -177.701047
	 D(7,12,1,19)     =         3.111689	     178.286641
	 D(7,12,11,10)    =        -0.012400	      -0.710445
	 D(7,12,11,20)    =         3.117669	     178.629277
	 D(8,7,6,16)      =        -0.001285	      -0.073630
	 D(8,7,12,11)     =         0.020954	       1.200589
	 D(8,9,10,11)     =        -0.008692	      -0.498033
	 D(8,9,10,13)     =        -3.115576	    -178.509383
	 D(9,8,7,12)      =        -0.023888	      -1.368709
	 D(9,10,11,12)    =         0.006105	       0.349780
	 D(9,10,11,20)    =        -3.123953	    -178.989307
	*D(9,10,13,14)    =        -0.977617	     -56.013331
	 D(10,9,8,18)     =        -3.137623	    -179.772533
	*D(10,13,14,21)   =        -1.142211	     -65.443885
	 D(10,13,14,22)   =         0.963415	      55.199622
	 D(10,13,14,23)   =         3.055577	     175.071687
	 D(11,10,9,17)    =         3.110008	     178.190320
	*D(11,10,13,14)   =         2.197922	     125.931676
	 D(11,12,1,19)    =        -0.025188	      -1.443146
	 D(12,1,2,15)     =         3.128666	     179.259351
	 D(12,7,6,16)     =        -3.135435	    -179.647174
	 D(12,7,8,18)     =         3.131282	     179.409221
	 D(12,11,10,13)   =         3.115834	     178.524113
	 D(13,10,9,17)    =         0.003124	       0.178970
	 D(13,10,11,20)   =        -0.014224	      -0.814973
	 D(15,2,1,19)     =        -0.002205	      -0.126353
	 D(17,9,8,18)     =         0.026205	       1.501408

	Current energy   :     -1188.1135607032

	Generating empirical Hessian (Schlegel '84) for each fragment.
	Taking RFO optimization step.
	Going to follow RFO solution 1.
	Using RFO vector 1.
	Norm of target step-size    0.21576
	Projected energy change by RFO approximation:        -0.0134590906

	Back-transformation to cartesian coordinates...
	Could not converge backtransformation.
	Using first guess instead.

	Back-transformation to cartesian coordinates to adjust frozen coordinates...
	Successfully converged to displaced geometry.

	--- Internal Coordinate Step in ANG or DEG, aJ/ANG or AJ/DEG ---
	 ---------------------------------------------------------------------------
	   Coordinate                Previous        Force       Change         New 
	   ----------                --------       ------       ------       ------
	    1 R(1,2)          =      1.370102    -0.007789     0.114904     1.485007
	    2 R(1,12)         =      1.415119    -0.126934     0.032483     1.447601
	    3 R(1,19)         =      1.010891     0.018925     0.209502     1.220393
	    4 R(2,3)          =      1.564834    -0.097344     0.296600     1.861433
	    5 R(2,15)         =      1.222621    -0.180768     0.045422     1.268043
	    6 R(3,4)          =      1.377419    -0.163531     0.159608     1.537028
	    7 R(3,5)          =      1.376796    -0.147099     0.257030     1.633826
	    8 R(3,6)          =      1.568499    -0.091647     0.043998     1.612497
	    9 R(6,7)          =      1.481115    -0.065059     0.157040     1.638155
	   10 R(6,16)         =      1.227467    -0.244544     0.233787     1.461254
	   11 R(7,8)          =      1.412693    -0.105340     0.034164     1.446858
	   12 R(7,12)         =      1.422466    -0.134438     0.263771     1.686237
	   13 R(8,9)          =      1.400332    -0.132944     0.135180     1.535512
	   14 R(8,18)         =      1.090374    -0.031298     0.214933     1.305307
	   15 R(9,10)         =      1.419601    -0.133820     0.263567     1.683168
	   16 R(9,17)         =      1.089523    -0.024482     0.034528     1.124051
	   17 R(10,11)        =      1.411664    -0.116733     0.032343     1.444007
	   18 R(10,13)        =      1.770768    -0.000005     0.211303     1.982072
	   19 R(11,12)        =      1.405685    -0.106071     0.141583     1.547269
	   20 R(11,20)        =      1.090859    -0.024564     0.215079     1.305938
	   21 R(13,14)        =      1.811809     0.028126     0.359216     2.171025
	   22 R(14,21)        =      1.094520    -0.011413     0.127359     1.221879
	   23 R(14,22)        =      1.093822    -0.008312     0.203172     1.296993
	   24 R(14,23)        =      1.094160    -0.016311     0.105463     1.199624
	   25 B(1,2,3)        =    115.980076    -0.000081     6.748579   122.728656
	   26 B(1,2,15)       =    120.381216     0.000846    -2.285006   118.096210
	   27 B(1,12,7)       =    120.025273     0.000250    -2.499719   117.525554
	   28 B(1,12,11)      =    120.216778    -0.000355    -4.447351   115.769428
	   29 B(2,1,12)       =    128.069336    -0.000171    -4.438064   123.631271
	   30 B(2,1,19)       =    112.237069     0.000366     8.520186   120.757255
	   31 B(2,3,4)        =    107.546085    -0.000011     5.409890   112.955975
	   32 B(2,3,5)        =    107.410302    -0.000019     1.078062   108.488364
	   33 B(2,3,6)        =    117.350888     0.000059    -2.412343   114.938545
	   34 B(3,2,15)       =    123.637061    -0.000765    -4.462759   119.174302
	   35 B(3,6,7)        =    117.604605    -0.000117    -3.987233   113.617372
	   36 B(3,6,16)       =    120.497569    -0.000720    -4.693030   115.804540
	   37 B(4,3,5)        =    108.242159    -0.000015     2.423330   110.665488
	   38 B(4,3,6)        =    108.058977    -0.000001    -7.421816   100.637161
	   39 B(5,3,6)        =    107.940855    -0.000017     1.007309   108.948164
	   40 B(6,7,8)        =    120.114330    -0.000057    -3.178299   116.936031
	   41 B(6,7,12)       =    120.876509     0.000061     6.594296   127.470805
	   42 B(7,6,16)       =    121.893195     0.000837     8.683038   130.576232
	   43 B(7,8,9)        =    121.005902     0.000018    -3.139567   117.866334
	   44 B(7,8,18)       =    118.233935    -0.000012    -3.437651   114.796284
	   45 B(7,12,11)      =    119.757400     0.000105     6.935883   126.693283
	   46 B(8,7,12)       =    119.007814    -0.000005    -3.414725   115.593089
	   47 B(8,9,10)       =    120.203007    -0.000115     6.237813   126.440820
	   48 B(8,9,17)       =    118.439231     0.000280    -2.177517   116.261714
	   49 B(9,8,18)       =    120.755523    -0.000006     6.574921   127.330444
	   50 B(9,10,11)      =    118.850301     0.000287    -2.513046   116.337255
	   51 B(9,10,13)      =    124.698389    -0.000696     4.644868   129.343257
	   52 B(10,9,17)      =    121.345160    -0.000165    -4.059358   117.285802
	   53 B(10,11,12)     =    121.161332    -0.000289    -4.101896   117.059436
	   54 B(10,11,20)     =    119.466582     0.000086    -3.206202   116.260380
	   55 B(10,13,14)     =    104.381586    -0.001279    -4.801397    99.580189
	   56 B(11,10,13)     =    116.423558     0.000409    -2.130035   114.293523
	   57 B(12,1,19)      =    119.690833    -0.000194    -4.085813   115.605020
	   58 B(12,11,20)     =    119.368827     0.000203     7.311352   126.680179
	   59 B(13,14,21)     =    109.175934     0.000384     9.350430   118.526364
	   60 B(13,14,22)     =    109.910589     0.000378    -0.354510   109.556078
	   61 B(13,14,23)     =    108.862321    -0.000552    -4.174830   104.687491
	   62 B(21,14,22)     =    109.924171    -0.000177    -7.334383   102.589787
	   63 B(21,14,23)     =    109.494731     0.000051    -3.956490   105.538242
	   64 B(22,14,23)     =    109.453750    -0.000088     7.026688   116.480438
	   65 D(1,2,3,4)      =    125.220660     0.000004    -7.098724   118.121936
	   66 D(1,2,3,5)      =   -118.469839    -0.000003    -0.332308  -118.802148
	   67 D(1,2,3,6)      =      3.242742    -0.000003     0.168405     3.411147
	   68 D(1,12,7,6)     =      1.047745    -0.000001     0.076989     1.124735
	   69 D(1,12,7,8)     =   -178.530445    -0.000005    -0.241432  -178.771877
	   70 D(1,12,11,10)   =    179.020067     0.000007     0.599820   179.619888
	   71 D(1,12,11,20)   =     -1.640211     0.000010     1.232963    -0.407248
	   72 D(2,1,12,7)     =     -1.058814     0.000001     0.259200    -0.799614
	   73 D(2,1,12,11)    =    179.211399     0.000008     1.150996   180.362395
	   74 D(2,3,6,7)      =     -3.237860     0.000003     0.400085    -2.837775
	   75 D(2,3,6,16)     =    177.530342    -0.000001     0.074444   177.604786
	   76 D(3,2,1,12)     =     -1.190788     0.000001    -0.197322    -1.388110
	   77 D(3,2,1,19)     =    179.423508     0.000002     0.153849   179.577357
	   78 D(3,6,7,8)      =   -179.294012     0.000003     0.188422  -179.105590
	   79 D(3,6,7,12)     =      1.132444    -0.000001    -0.133443     0.999001
	   80 D(4,3,2,15)     =    -55.245762     0.000006    -6.970800   -62.216562
	   81 D(4,3,6,7)      =   -124.950618    -0.000003     0.445652  -124.504966
	   82 D(4,3,6,16)     =     55.817584    -0.000007     0.120012    55.937596
	   83 D(5,3,2,15)     =     61.063739    -0.000001    -0.204384    60.859354
	   84 D(5,3,6,7)      =    118.199628     0.000003     0.927423   119.127051
	   85 D(5,3,6,16)     =    -61.032170    -0.000000     0.601782   -60.430388
	   86 D(6,3,2,15)     =   -177.223680    -0.000001     0.296329  -176.927351
	   87 D(6,7,8,9)      =    179.049809     0.000003     0.357782   179.407591
	   88 D(6,7,8,18)     =     -0.172261     0.000003     0.467351     0.295090
	   89 D(6,7,12,11)    =   -179.221221    -0.000008    -0.959118  -180.180338
	   90 D(7,8,9,10)     =      1.025012    -0.000003    -0.287513     0.737499
	   91 D(7,8,9,17)     =   -177.701047    -0.000004    -0.278275  -177.979322
	   92 D(7,12,1,19)    =    178.286641     0.000001    -0.006267   178.280374
	   93 D(7,12,11,10)   =     -0.710445     0.000014     1.615481     0.905037
	   94 D(7,12,11,20)   =    178.629277     0.000017     2.248624   180.877901
	   95 D(8,7,6,16)     =     -0.073630     0.000004     0.443469     0.369840
	   96 D(8,7,12,11)    =      1.200589    -0.000012    -1.277539    -0.076950
	   97 D(8,9,10,11)    =     -0.498033     0.000003     0.597179     0.099146
	   98 D(8,9,10,13)    =   -178.509383     0.000003     0.586650  -177.922733
	   99 D(9,8,7,12)     =     -1.368709     0.000007     0.684259    -0.684450
	  100 D(9,10,11,12)   =      0.349780    -0.000009    -1.186620    -0.836840
	  101 D(9,10,11,20)   =   -178.989307    -0.000013    -1.823267  -180.812574
	  102 *D(9,10,13,14)  =    -56.013331    -0.000000    -0.000000   -56.013331
	  103 D(10,9,8,18)    =   -179.772533    -0.000003    -0.503216  -180.275749
	  104 *D(10,13,14,21) =    -65.443885     0.000000    -0.000000   -65.443885
	  105 D(10,13,14,22)  =     55.199622     0.000059    -3.491316    51.708306
	  106 D(10,13,14,23)  =    175.071687     0.000009     2.247722   177.319409
	  107 D(11,10,9,17)   =    178.190320     0.000005     0.614020   178.804340
	  108 *D(11,10,13,14) =    125.931676    -0.000000     0.000000   125.931676
	  109 D(11,12,1,19)   =     -1.443146     0.000008     0.885529    -0.557617
	  110 D(12,1,2,15)    =    179.259351     0.000001    -0.312422   178.946928
	  111 D(12,7,6,16)    =   -179.647174    -0.000000     0.121605  -179.525569
	  112 D(12,7,8,18)    =    179.409221     0.000008     0.793828   180.203049
	  113 D(12,11,10,13)  =    178.524113    -0.000014    -1.039289   177.484825
	  114 D(13,10,9,17)   =      0.178970     0.000005     0.603491     0.782461
	  115 D(13,10,11,20)  =     -0.814973    -0.000018    -1.675936    -2.490909
	  116 D(15,2,1,19)    =     -0.126353     0.000001     0.038748    -0.087605
	  117 D(17,9,8,18)    =      1.501408    -0.000004    -0.493978     1.007430
	 ---------------------------------------------------------------------------
	Successfully symmetrized geometry.

  ==> Convergence Check <==

  Measures of convergence in internal coordinates in au.
  Criteria marked as inactive (o), active & met (*), and active & unmet ( ).
  --------------------------------------------------------------------------------------------- ~
   Step     Total Energy     Delta E     MAX Force     RMS Force      MAX Disp      RMS Disp    ~
  --------------------------------------------------------------------------------------------- ~
    Convergence Criteria             o    2.50e-03 *    1.70e-03 *    1.00e-02 *    6.70e-03 *  ~
  --------------------------------------------------------------------------------------------- ~
      1   -1188.11356070   -1.19e+03 o    2.97e-02      6.61e-03      6.79e-01      1.69e-01    ~
  ---------------------------------------------------------------------------------------------

	Writing optimization data to binary file.
	Structure for next step:
	Cartesian Geometry (in Angstrom)
	    N    -0.5056331985  -2.0390220628  -0.1744395545
	    C    -1.8788723429  -2.0590812394   0.3904112607
	    C    -2.5940901311  -0.6321448822   1.3481432496
	    F    -3.8359645286  -0.0228605251   0.6780876463
	    F    -2.9475864165  -1.1468172713   2.8579574670
	    C    -1.6422058432   0.6656711634   1.4468109017
	    C    -0.1779643652   0.4607678207   0.7414302101
	    C     0.7422059926   1.5754719853   0.8056025239
	    C     2.1260688511   1.4016652340   0.1633316742
	    C     2.6919941476   0.0335512977  -0.6373228777
	    C     1.7780900953  -1.0809589508  -0.7256614690
	    C     0.3911893288  -0.9082841515  -0.0617868184
	    S     4.4700673221  -0.3038896911  -1.4455289526
	    C     4.5791057852   1.3900796993  -2.7990156956
	    O    -2.5826918181  -3.0987405239   0.2124226289
	    O    -2.2067365331   1.8167402155   2.1479578143
	    H     2.8317589072   2.2712951634   0.2594384027
	    H     0.2874811235   2.6252134062   1.4341682933
	    H    -0.0700323223  -2.9983594585  -0.7902993750
	    H     2.2127457056  -2.1356249923  -1.3614504890
	    H     3.7861459953   1.4476290883  -3.7268575058
	    H     4.3310880810   2.4834583941  -2.1469410204
	    H     5.6624674340   1.3042720854  -3.3070130558
			--------------------------
			 OPTKING Finished Execution 
			--------------------------

    Structure for next step:
    Molecular point group: c1
    Full point group: C1

    Geometry (in Angstrom), charge = 0, multiplicity = 1:

    N           -0.595053745932    -1.768266000332    -0.399210190294
    C           -1.968292895733    -1.788325177073     0.165640627134
    C           -2.683510686746    -0.361388814237     1.123372619813
    F           -3.925385089120     0.247895545247     0.453317013861
    F           -3.037006973575    -0.876061205373     2.633186843184
    C           -1.731626395101     0.936427236463     1.222040272288
    C           -0.267384911337     0.731523893002     0.516659577891
    C            0.652785450097     1.846228061968     0.580831891959
    C            2.036648314046     1.672421309957    -0.061438960287
    C            2.602573612706     0.304307368240    -0.862093515299
    C            1.688669556866    -0.810202884632    -0.950432106925
    C            0.301768784889    -0.637528084606    -0.286557453693
    S            4.380646794251    -0.033133621805    -1.670299593352
    C            4.489685257740     1.660835775206    -3.023786341646
    O           -2.672112373665    -2.827984465589    -0.012348005345
    O           -2.296157087260     2.087496293095     1.923187187643
    H            2.742338372927     2.542051242775     0.034667768605
    H            0.198060579204     2.895969486917     1.209397663829
    H           -0.159452868039    -2.727603399840    -1.015070013217
    H            2.123325168873    -1.864868930249    -1.586221129393
    H            3.696725464727     1.718385164423    -3.951628155567
    H            4.241667552562     2.754214474287    -2.371711663916
    H            5.573046910864     1.575028160998    -3.531783703865

gradient() will perform analytic gradient computation.

*** tstart() called on cpu-spot-dy-c5n2xlarge-1
*** at Tue Jun 22 00:29:12 2021

   => Loading Basis Set <=

    Name: 6-31+G*
    Role: ORBITAL
    Keyword: BASIS
    atoms 1             entry N          line   138 file /fsx/users/francis/anaconda3/envs/poltype-dev/share/psi4/basis/6-31pgs.gbs 
    atoms 2-3, 6-12, 14 entry C          line   119 file /fsx/users/francis/anaconda3/envs/poltype-dev/share/psi4/basis/6-31pgs.gbs 
    atoms 4-5           entry F          line   176 file /fsx/users/francis/anaconda3/envs/poltype-dev/share/psi4/basis/6-31pgs.gbs 
    atoms 13            entry S          line   344 file /fsx/users/francis/anaconda3/envs/poltype-dev/share/psi4/basis/6-31pgs.gbs 
    atoms 15-16         entry O          line   157 file /fsx/users/francis/anaconda3/envs/poltype-dev/share/psi4/basis/6-31pgs.gbs 
    atoms 17-23         entry H          line    46 file /fsx/users/francis/anaconda3/envs/poltype-dev/share/psi4/basis/6-31pgs.gbs 


         ---------------------------------------------------------
                                   SCF
               by Justin Turney, Rob Parrish, Andy Simmonett
                          and Daniel G. A. Smith
                              RKS Reference
                        8 Threads,  15258 MiB Core
         ---------------------------------------------------------

  ==> Geometry <==

    Molecular point group: c1
    Full point group: C1

    Geometry (in Angstrom), charge = 0, multiplicity = 1:

       Center              X                  Y                   Z               Mass       
    ------------   -----------------  -----------------  -----------------  -----------------
         N           -0.595053745932    -1.768266000332    -0.399210190294    14.003074004430
         C           -1.968292895733    -1.788325177073     0.165640627134    12.000000000000
         C           -2.683510686746    -0.361388814237     1.123372619813    12.000000000000
         F           -3.925385089120     0.247895545247     0.453317013861    18.998403162730
         F           -3.037006973575    -0.876061205373     2.633186843184    18.998403162730
         C           -1.731626395101     0.936427236463     1.222040272288    12.000000000000
         C           -0.267384911337     0.731523893002     0.516659577891    12.000000000000
         C            0.652785450097     1.846228061968     0.580831891959    12.000000000000
         C            2.036648314046     1.672421309957    -0.061438960287    12.000000000000
         C            2.602573612706     0.304307368240    -0.862093515299    12.000000000000
         C            1.688669556866    -0.810202884632    -0.950432106925    12.000000000000
         C            0.301768784889    -0.637528084606    -0.286557453693    12.000000000000
         S            4.380646794251    -0.033133621805    -1.670299593352    31.972071174400
         C            4.489685257740     1.660835775206    -3.023786341646    12.000000000000
         O           -2.672112373665    -2.827984465589    -0.012348005345    15.994914619570
         O           -2.296157087260     2.087496293095     1.923187187643    15.994914619570
         H            2.742338372927     2.542051242775     0.034667768605     1.007825032230
         H            0.198060579204     2.895969486917     1.209397663829     1.007825032230
         H           -0.159452868039    -2.727603399840    -1.015070013217     1.007825032230
         H            2.123325168873    -1.864868930249    -1.586221129393     1.007825032230
         H            3.696725464727     1.718385164423    -3.951628155567     1.007825032230
         H            4.241667552562     2.754214474287    -2.371711663916     1.007825032230
         H            5.573046910864     1.575028160998    -3.531783703865     1.007825032230

  Running in c1 symmetry.

  Rotational constants: A =      0.02943  B =      0.00691  C =      0.00599 [cm^-1]
  Rotational constants: A =    882.40214  B =    207.04671  C =    179.50365 [MHz]
  Nuclear repulsion = 1065.169803072998093

  Charge       = 0
  Multiplicity = 1
  Electrons    = 124
  Nalpha       = 62
  Nbeta        = 62

  ==> Algorithm <==

  SCF Algorithm Type is DF.
  DIIS enabled.
  MOM disabled.
  Fractional occupation disabled.
  Guess Type is READ.
  Energy threshold   = 1.00e-08
  Density threshold  = 1.00e-08
  Integral threshold = 0.00e+00

  ==> Primary Basis <==

  Basis Set: 6-31+G*
    Blend: 6-31+G*
    Number of shells: 144
    Number of basis function: 322
    Number of Cartesian functions: 322
    Spherical Harmonics?: false
    Max angular momentum: 2

  ==> DFT Potential <==

   => Composite Functional: WB97X-D <= 

    wB97X-D Hyb-GGA Exchange-Correlation Functional

    J.-D. Chai and M. Head-Gordon, Phys. Chem. Chem. Phys. 10, 6615 (2008)

    Deriv               =              1
    GGA                 =           TRUE
    Meta                =          FALSE

    Exchange Hybrid     =           TRUE
    MP2 Hybrid          =          FALSE

   => Exchange-Correlation Functionals <=

    1.0000   wB97D range-separated functional

   => Exact (HF) Exchange <=

    0.7780            HF,LR [omega = 0.2000]
    0.2220               HF 

   => Molecular Quadrature <=

    Radial Scheme          =       TREUTLER
    Pruning Scheme         =           FLAT
    Nuclear Scheme         =       TREUTLER

    BS radius alpha        =              1
    Pruning alpha          =              1
    Radial Points          =             75
    Spherical Points       =            302
    Total Points           =         520866
    Total Blocks           =           3882
    Max Points             =            256
    Max Functions          =            276

   => WB97X-D: Empirical Dispersion <=

    Chai and Head-Gordon Dispersion Correction
    Chai, J.-D.; Head-Gordon, M. (2010), J. Chem. Phys., 132: 6615-6620

        s6 =       1.000000

   => Loading Basis Set <=

    Name: (6-31+G* AUX)
    Role: JKFIT
    Keyword: DF_BASIS_SCF
    atoms 1             entry N          line   252 file /fsx/users/francis/anaconda3/envs/poltype-dev/share/psi4/basis/heavy-aug-cc-pvdz-jkfit.gbs 
    atoms 2-3, 6-12, 14 entry C          line   194 file /fsx/users/francis/anaconda3/envs/poltype-dev/share/psi4/basis/heavy-aug-cc-pvdz-jkfit.gbs 
    atoms 4-5           entry F          line   368 file /fsx/users/francis/anaconda3/envs/poltype-dev/share/psi4/basis/heavy-aug-cc-pvdz-jkfit.gbs 
    atoms 13            entry S          line   730 file /fsx/users/francis/anaconda3/envs/poltype-dev/share/psi4/basis/heavy-aug-cc-pvdz-jkfit.gbs 
    atoms 15-16         entry O          line   310 file /fsx/users/francis/anaconda3/envs/poltype-dev/share/psi4/basis/heavy-aug-cc-pvdz-jkfit.gbs 
    atoms 17-23         entry H          line   116 file /fsx/users/francis/anaconda3/envs/poltype-dev/share/psi4/basis/heavy-aug-cc-pvdz-jkfit.gbs 

   => Loading Basis Set <=

    Name: 6-31+G*
    Role: ORBITAL
    Keyword: BASIS
    atoms 1             entry N          line   138 file /fsx/users/francis/anaconda3/envs/poltype-dev/share/psi4/basis/6-31pgs.gbs 
    atoms 2-3, 6-12, 14 entry C          line   119 file /fsx/users/francis/anaconda3/envs/poltype-dev/share/psi4/basis/6-31pgs.gbs 
    atoms 4-5           entry F          line   176 file /fsx/users/francis/anaconda3/envs/poltype-dev/share/psi4/basis/6-31pgs.gbs 
    atoms 13            entry S          line   344 file /fsx/users/francis/anaconda3/envs/poltype-dev/share/psi4/basis/6-31pgs.gbs 
    atoms 15-16         entry O          line   157 file /fsx/users/francis/anaconda3/envs/poltype-dev/share/psi4/basis/6-31pgs.gbs 
    atoms 17-23         entry H          line    46 file /fsx/users/francis/anaconda3/envs/poltype-dev/share/psi4/basis/6-31pgs.gbs 

  Reading orbitals from file 180, no projection.

  ==> Pre-Iterations <==

   -------------------------------------------------------
    Irrep   Nso     Nmo     Nalpha   Nbeta   Ndocc  Nsocc
   -------------------------------------------------------
     A        322     322       0       0       0       0
   -------------------------------------------------------
    Total     322     322      62      62      62       0
   -------------------------------------------------------

  ==> Integral Setup <==

  ==> DiskDFJK: Density-Fitted J/K Matrices <==

    J tasked:                  Yes
    K tasked:                  Yes
    wK tasked:                 Yes
    Omega:               2.000E-01
    OpenMP threads:              8
    Integrals threads:           8
    Memory [MiB]:             8631
    Algorithm:                Core
    Integral Cache:           NONE
    Schwarz Cutoff:          1E-12
    Fitting Condition:       1E-10

   => Auxiliary Basis Set <=

  Basis Set: (6-31+G* AUX)
    Blend: HEAVY-AUG-CC-PVDZ-JKFIT
    Number of shells: 523
    Number of basis function: 1840
    Number of Cartesian functions: 1840
    Spherical Harmonics?: false
    Max angular momentum: 3

  Cached 100.0% of DFT collocation blocks in 2.747 [GiB].

  Minimum eigenvalue in the overlap matrix is 1.7415253145E-06.
  Using Symmetric Orthogonalization.

  SCF Guess: Orbitals guess was supplied from a previous computation.

  ==> Iterations <==

                           Total Energy        Delta E     RMS |[F,P]|

   @DF-RKS iter   0: -1187.30472376838770   -1.18730e+03   2.55115e-02 
   @DF-RKS iter   1: -1176.12364640349142    1.11811e+01   1.14655e-02 DIIS
   @DF-RKS iter   2:  -904.12484775538314    2.71999e+02   4.83930e-02 DIIS
   @DF-RKS iter   3: -1119.29001366146395   -2.15165e+02   2.68820e-02 DIIS
   @DF-RKS iter   4: -1184.58740553713915   -6.52974e+01   6.93273e-03 DIIS
   @DF-RKS iter   5: -1181.46581052148213    3.12160e+00   9.63196e-03 DIIS
   @DF-RKS iter   6: -1187.24444133241172   -5.77863e+00   2.57606e-03 DIIS
   @DF-RKS iter   7: -1187.49700620899989   -2.52565e-01   1.72619e-03 DIIS
   @DF-RKS iter   8: -1187.61010414474003   -1.13098e-01   4.31312e-04 DIIS
   @DF-RKS iter   9: -1187.61913004340749   -9.02590e-03   1.90441e-04 DIIS
   @DF-RKS iter  10: -1187.62131479308232   -2.18475e-03   1.05673e-04 DIIS
   @DF-RKS iter  11: -1187.62197021124348   -6.55418e-04   6.08093e-05 DIIS
   @DF-RKS iter  12: -1187.62234524615451   -3.75035e-04   2.86395e-05 DIIS
   @DF-RKS iter  13: -1187.62241483461480   -6.95885e-05   1.32864e-05 DIIS
   @DF-RKS iter  14: -1187.62243010331349   -1.52687e-05   4.09672e-06 DIIS
   @DF-RKS iter  15: -1187.62243326261478   -3.15930e-06   2.66550e-06 DIIS
   @DF-RKS iter  16: -1187.62243478127721   -1.51866e-06   1.45432e-06 DIIS
   @DF-RKS iter  17: -1187.62243528635008   -5.05073e-07   5.70589e-07 DIIS
   @DF-RKS iter  18: -1187.62243534208483   -5.57347e-08   2.49662e-07 DIIS
   @DF-RKS iter  19: -1187.62243534968093   -7.59610e-09   1.42380e-07 DIIS
   @DF-RKS iter  20: -1187.62243535268567   -3.00474e-09   7.31881e-08 DIIS
   @DF-RKS iter  21: -1187.62243535333528   -6.49607e-10   3.28586e-08 DIIS
   @DF-RKS iter  22: -1187.62243535353900   -2.03727e-10   1.02312e-08 DIIS
   @DF-RKS iter  23: -1187.62243535358903   -5.00222e-11   7.11294e-09 DIIS
  Energy and wave function converged.


  ==> Post-Iterations <==

    Orbital Energies [Eh]
    ---------------------

    Doubly Occupied:                                                      

       1A    -89.107976     2A    -24.876355     3A    -24.858615  
       4A    -19.330444     5A    -19.324658     6A    -14.586552  
       7A    -10.565334     8A    -10.515323     9A    -10.489285  
      10A    -10.470392    11A    -10.437489    12A    -10.418026  
      13A    -10.416270    14A    -10.408878    15A    -10.404175  
      16A    -10.392865    17A     -8.118514    18A     -6.069532  
      19A     -6.066458    20A     -6.057822    21A     -1.309608  
      22A     -1.268239    23A     -1.179565    24A     -1.076405  
      25A     -1.065513    26A     -0.944972    27A     -0.905835  
      28A     -0.865610    29A     -0.849921    30A     -0.820742  
      31A     -0.771795    32A     -0.749506    33A     -0.724713  
      34A     -0.709587    35A     -0.651047    36A     -0.632917  
      37A     -0.619303    38A     -0.609196    39A     -0.587359  
      40A     -0.575005    41A     -0.560058    42A     -0.546216  
      43A     -0.539906    44A     -0.530538    45A     -0.522165  
      46A     -0.515659    47A     -0.514125    48A     -0.499554  
      49A     -0.497064    50A     -0.493331    51A     -0.487456  
      52A     -0.485611    53A     -0.469992    54A     -0.457203  
      55A     -0.446897    56A     -0.439710    57A     -0.415116  
      58A     -0.407160    59A     -0.381935    60A     -0.376395  
      61A     -0.350295    62A     -0.312577  

    Virtual:                                                              

      63A     -0.091422    64A     -0.023259    65A     -0.014956  
      66A     -0.013013    67A      0.007357    68A      0.014833  
      69A      0.020155    70A      0.027229    71A      0.045591  
      72A      0.055844    73A      0.068719    74A      0.075441  
      75A      0.082192    76A      0.085122    77A      0.088954  
      78A      0.090694    79A      0.102075    80A      0.103751  
      81A      0.107541    82A      0.112879    83A      0.117267  
      84A      0.119526    85A      0.126300    86A      0.128325  
      87A      0.133647    88A      0.135647    89A      0.144211  
      90A      0.145682    91A      0.153298    92A      0.155769  
      93A      0.158728    94A      0.163208    95A      0.167637  
      96A      0.174285    97A      0.178914    98A      0.179627  
      99A      0.182229   100A      0.191352   101A      0.194994  
     102A      0.197343   103A      0.199537   104A      0.209443  
     105A      0.217226   106A      0.221068   107A      0.227759  
     108A      0.232870   109A      0.235115   110A      0.236661  
     111A      0.243671   112A      0.250565   113A      0.252244  
     114A      0.254502   115A      0.260593   116A      0.269458  
     117A      0.276929   118A      0.281993   119A      0.282839  
     120A      0.287530   121A      0.297853   122A      0.299108  
     123A      0.303598   124A      0.306992   125A      0.319645  
     126A      0.320748   127A      0.327964   128A      0.337192  
     129A      0.344877   130A      0.355652   131A      0.356299  
     132A      0.362938   133A      0.366751   134A      0.372581  
     135A      0.381748   136A      0.388071   137A      0.397397  
     138A      0.401681   139A      0.402946   140A      0.409952  
     141A      0.419718   142A      0.428633   143A      0.438327  
     144A      0.445082   145A      0.448398   146A      0.463007  
     147A      0.476368   148A      0.477456   149A      0.494334  
     150A      0.510321   151A      0.516276   152A      0.519959  
     153A      0.534621   154A      0.560447   155A      0.563988  
     156A      0.574898   157A      0.618040   158A      0.631670  
     159A      0.652251   160A      0.682854   161A      0.701606  
     162A      0.711433   163A      0.718910   164A      0.723471  
     165A      0.737594   166A      0.759819   167A      0.770669  
     168A      0.775715   169A      0.780710   170A      0.799715  
     171A      0.806559   172A      0.823306   173A      0.825484  
     174A      0.833039   175A      0.844857   176A      0.852845  
     177A      0.862569   178A      0.881396   179A      0.891448  
     180A      0.897188   181A      0.914741   182A      0.928843  
     183A      0.932581   184A      0.943474   185A      0.951459  
     186A      0.960531   187A      0.981662   188A      0.995521  
     189A      1.018192   190A      1.026221   191A      1.028461  
     192A      1.040710   193A      1.060128   194A      1.067459  
     195A      1.080210   196A      1.092988   197A      1.121402  
     198A      1.126722   199A      1.167142   200A      1.175407  
     201A      1.179568   202A      1.225374   203A      1.250524  
     204A      1.267877   205A      1.275876   206A      1.286366  
     207A      1.293537   208A      1.296740   209A      1.306169  
     210A      1.324600   211A      1.327605   212A      1.351580  
     213A      1.373725   214A      1.384584   215A      1.400039  
     216A      1.403721   217A      1.433119   218A      1.442003  
     219A      1.460723   220A      1.463714   221A      1.471279  
     222A      1.488148   223A      1.513875   224A      1.526938  
     225A      1.531761   226A      1.536846   227A      1.545154  
     228A      1.572899   229A      1.588039   230A      1.602357  
     231A      1.628268   232A      1.634991   233A      1.638834  
     234A      1.652669   235A      1.662308   236A      1.702638  
     237A      1.712980   238A      1.717391   239A      1.730502  
     240A      1.746604   241A      1.755389   242A      1.769265  
     243A      1.782197   244A      1.804990   245A      1.814875  
     246A      1.826100   247A      1.834728   248A      1.846334  
     249A      1.849180   250A      1.875050   251A      1.885044  
     252A      1.905736   253A      1.929585   254A      1.938889  
     255A      1.945614   256A      1.950888   257A      1.960045  
     258A      1.965487   259A      1.972626   260A      1.984458  
     261A      1.987984   262A      2.011655   263A      2.025228  
     264A      2.034585   265A      2.041551   266A      2.054668  
     267A      2.061475   268A      2.072012   269A      2.083288  
     270A      2.092376   271A      2.126891   272A      2.168069  
     273A      2.174617   274A      2.185414   275A      2.208448  
     276A      2.229053   277A      2.245750   278A      2.259624  
     279A      2.288637   280A      2.297502   281A      2.326088  
     282A      2.337025   283A      2.352702   284A      2.399248  
     285A      2.421200   286A      2.433763   287A      2.452129  
     288A      2.466005   289A      2.517700   290A      2.539388  
     291A      2.569132   292A      2.580532   293A      2.602540  
     294A      2.665879   295A      2.717792   296A      2.738860  
     297A      2.766785   298A      2.808261   299A      2.910129  
     300A      2.965850   301A      2.970379   302A      3.021193  
     303A      3.065269   304A      3.089331   305A      3.165273  
     306A      3.179364   307A      3.982672   308A      4.059460  
     309A      4.155886   310A      4.182165   311A      4.238672  
     312A      4.299231   313A      4.326610   314A      4.367508  
     315A      4.379957   316A      4.432936   317A      4.469382  
     318A      4.532045   319A      4.623007   320A      4.712897  
     321A      5.575128   322A      6.516167  

    Final Occupation by Irrep:
              A 
    DOCC [    62 ]

  @DF-RKS Final Energy: -1187.62243535358903

   => Energetics <=

    Nuclear Repulsion Energy =           1065.1698030729980928
    One-Electron Energy =               -3745.1457368468509230
    Two-Electron Energy =                1580.6084514744604803
    DFT Exchange-Correlation Energy =     -88.2416809260099342
    Empirical Dispersion Energy =          -0.0132721281867880
    VV10 Nonlocal Energy =                  0.0000000000000000
    Total Energy =                      -1187.6224353535890259

Computation Completed


Properties will be evaluated at   0.000000,   0.000000,   0.000000 [a0]

Properties computed using the SCF density matrix

  Nuclear Dipole Moment: [e a0]
     X:    23.9256      Y:     7.0554      Z:   -13.4566

  Electronic Dipole Moment: [e a0]
     X:   -20.7640      Y:    -7.0604      Z:    11.2432

  Dipole Moment: [e a0]
     X:     3.1617      Y:    -0.0050      Z:    -2.2134     Total:     3.8595

  Dipole Moment: [D]
     X:     8.0361      Y:    -0.0127      Z:    -5.6260     Total:     9.8098


*** tstop() called on cpu-spot-dy-c5n2xlarge-1 at Tue Jun 22 00:30:48 2021
Module time:
	user time   =     733.38 seconds =      12.22 minutes
	system time =      10.35 seconds =       0.17 minutes
	total time  =         96 seconds =       1.60 minutes
Total time:
	user time   =    1450.39 seconds =      24.17 minutes
	system time =      24.10 seconds =       0.40 minutes
	total time  =        196 seconds =       3.27 minutes

*** tstart() called on cpu-spot-dy-c5n2xlarge-1
*** at Tue Jun 22 00:30:48 2021


         ------------------------------------------------------------
                                   SCF GRAD                          
                          Rob Parrish, Justin Turney,                
                       Andy Simmonett, and Alex Sokolov              
         ------------------------------------------------------------

  ==> Geometry <==

    Molecular point group: c1
    Full point group: C1

    Geometry (in Angstrom), charge = 0, multiplicity = 1:

       Center              X                  Y                   Z               Mass       
    ------------   -----------------  -----------------  -----------------  -----------------
         N           -0.595053745932    -1.768266000332    -0.399210190294    14.003074004430
         C           -1.968292895733    -1.788325177073     0.165640627134    12.000000000000
         C           -2.683510686746    -0.361388814237     1.123372619813    12.000000000000
         F           -3.925385089120     0.247895545247     0.453317013861    18.998403162730
         F           -3.037006973575    -0.876061205373     2.633186843184    18.998403162730
         C           -1.731626395101     0.936427236463     1.222040272288    12.000000000000
         C           -0.267384911337     0.731523893002     0.516659577891    12.000000000000
         C            0.652785450097     1.846228061968     0.580831891959    12.000000000000
         C            2.036648314046     1.672421309957    -0.061438960287    12.000000000000
         C            2.602573612706     0.304307368240    -0.862093515299    12.000000000000
         C            1.688669556866    -0.810202884632    -0.950432106925    12.000000000000
         C            0.301768784889    -0.637528084606    -0.286557453693    12.000000000000
         S            4.380646794251    -0.033133621805    -1.670299593352    31.972071174400
         C            4.489685257740     1.660835775206    -3.023786341646    12.000000000000
         O           -2.672112373665    -2.827984465589    -0.012348005345    15.994914619570
         O           -2.296157087260     2.087496293095     1.923187187643    15.994914619570
         H            2.742338372927     2.542051242775     0.034667768605     1.007825032230
         H            0.198060579204     2.895969486917     1.209397663829     1.007825032230
         H           -0.159452868039    -2.727603399840    -1.015070013217     1.007825032230
         H            2.123325168873    -1.864868930249    -1.586221129393     1.007825032230
         H            3.696725464727     1.718385164423    -3.951628155567     1.007825032230
         H            4.241667552562     2.754214474287    -2.371711663916     1.007825032230
         H            5.573046910864     1.575028160998    -3.531783703865     1.007825032230

  Nuclear repulsion = 1065.169803072998093

  ==> Basis Set <==

  Basis Set: 6-31+G*
    Blend: 6-31+G*
    Number of shells: 144
    Number of basis function: 322
    Number of Cartesian functions: 322
    Spherical Harmonics?: false
    Max angular momentum: 2

  ==> DFJKGrad: Density-Fitted SCF Gradients <==

    Gradient:                    1
    J tasked:                  Yes
    K tasked:                  Yes
    wK tasked:                 Yes
    Omega:               2.000E-01
    OpenMP threads:              8
    Integrals threads:           8
    Memory [MiB]:            11444
    Schwarz Cutoff:          0E+00
    Fitting Condition:       1E-10

   => Auxiliary Basis Set <=

  Basis Set: (6-31+G* AUX)
    Blend: HEAVY-AUG-CC-PVDZ-JKFIT
    Number of shells: 523
    Number of basis function: 1840
    Number of Cartesian functions: 1840
    Spherical Harmonics?: false
    Max angular momentum: 3

  ==> DFT Potential <==

   => Composite Functional: WB97X-D <= 

    wB97X-D Hyb-GGA Exchange-Correlation Functional

    J.-D. Chai and M. Head-Gordon, Phys. Chem. Chem. Phys. 10, 6615 (2008)

    Deriv               =              1
    GGA                 =           TRUE
    Meta                =          FALSE

    Exchange Hybrid     =           TRUE
    MP2 Hybrid          =          FALSE

   => Exchange-Correlation Functionals <=

    1.0000   wB97D range-separated functional

   => Exact (HF) Exchange <=

    0.7780            HF,LR [omega = 0.2000]
    0.2220               HF 

   => Molecular Quadrature <=

    Radial Scheme          =       TREUTLER
    Pruning Scheme         =           FLAT
    Nuclear Scheme         =       TREUTLER

    BS radius alpha        =              1
    Pruning alpha          =              1
    Radial Points          =             75
    Spherical Points       =            302
    Total Points           =         520866
    Total Blocks           =           3882
    Max Points             =            256
    Max Functions          =            276


  -Total Gradient:
     Atom            X                  Y                   Z
    ------   -----------------  -----------------  -----------------
       1       -0.005041219307     0.006705267327     0.005778784427
       2        0.033350394023     0.072031455343     0.018883385922
       3        0.021197338338    -0.018535205720    -0.013885581771
       4       -0.070840660706     0.056290633169    -0.042046156784
       5       -0.019665569988    -0.029557513924     0.102631390824
       6        0.030898100077    -0.076051668558    -0.056009058746
       7       -0.006438074440     0.021585127578     0.012745341120
       8       -0.030707533036     0.005293094400     0.013859712816
       9        0.016167457945     0.030151868488     0.003874484431
      10        0.040520685394    -0.031881365203    -0.028598489869
      11        0.011495011271    -0.009396268000    -0.009241533120
      12        0.009537198808    -0.014207001332    -0.008412034581
      13        0.054156991933    -0.070744517382     0.015133191336
[...]
	 ---------------------------------------------------------------------------
	   Coordinate                Previous        Force       Change         New 
	   ----------                --------       ------       ------       ------
	    1 R(1,2)          =      1.369788    -0.000241     0.000005     1.369794
	    2 R(1,12)         =      1.397215     0.000366     0.000103     1.397318
	    3 R(1,19)         =      1.013036    -0.000113    -0.000001     1.013035
	    4 R(2,3)          =      1.547216     0.000362     0.000209     1.547425
	    5 R(2,15)         =      1.208591     0.001502     0.000154     1.208745
	    6 R(3,4)          =      1.352695    -0.001732    -0.000304     1.352391
	    7 R(3,5)          =      1.356990     0.002673     0.000492     1.357483
	    8 R(3,6)          =      1.553613    -0.000285     0.000008     1.553620
	    9 R(6,7)          =      1.469551    -0.000728    -0.000121     1.469430
	   10 R(6,16)         =      1.209619     0.001997     0.000193     1.209812
	   11 R(7,8)          =      1.401200    -0.000031     0.000016     1.401216
	   12 R(7,12)         =      1.401826     0.000366     0.000119     1.401945
	   13 R(8,9)          =      1.381810    -0.000259    -0.000033     1.381778
	   14 R(8,18)         =      1.085330     0.000790     0.000219     1.085550
	   15 R(9,10)         =      1.404071     0.000125     0.000052     1.404123
	   16 R(9,17)         =      1.084790     0.000227     0.000050     1.084840
	   17 R(10,11)        =      1.392421    -0.000044     0.000007     1.392428
	   18 R(10,13)        =      1.780097     0.000005     0.000020     1.780118
	   19 R(11,12)        =      1.396933    -0.000229    -0.000013     1.396920
	   20 R(11,20)        =      1.086200     0.000997     0.000263     1.086463
	   21 R(13,14)        =      1.817614     0.001984     0.000718     1.818332
	   22 R(14,21)        =      1.091870     0.000335     0.000119     1.091988
	   23 R(14,22)        =      1.091565     0.000676     0.000195     1.091760
	   24 R(14,23)        =      1.092854     0.000122     0.000055     1.092909
	   25 B(1,2,3)        =    115.886395     0.000004     0.012656   115.899051
	   26 B(1,2,15)       =    122.963196    -0.000001    -0.003712   122.959484
	   27 B(1,12,7)       =    121.114215     0.000001     0.006105   121.120320
	   28 B(1,12,11)      =    119.021153    -0.000001    -0.007180   119.013974
	   29 B(2,1,12)       =    127.062042    -0.000003    -0.009131   127.052911
	   30 B(2,1,19)       =    114.516489     0.000002     0.007031   114.523521
	   31 B(2,3,4)        =    107.564531     0.000006     0.060772   107.625303
	   32 B(2,3,5)        =    106.997041    -0.000004    -0.056948   106.940093
	   33 B(2,3,6)        =    117.890288    -0.000005    -0.013879   117.876409
	   34 B(3,2,15)       =    121.142974    -0.000003    -0.005442   121.137532
	   35 B(3,6,7)        =    117.105669     0.000007     0.019809   117.125478
	   36 B(3,6,16)       =    118.314473    -0.000004    -0.008402   118.306071
	   37 B(4,3,5)        =    108.354181    -0.000001    -0.001223   108.352958
	   38 B(4,3,6)        =    108.136600     0.000006     0.044306   108.180906
	   39 B(5,3,6)        =    107.588252    -0.000002    -0.033861   107.554392
	   40 B(6,7,8)        =    119.940323     0.000004     0.007646   119.947969
	   41 B(6,7,12)       =    120.799520    -0.000003    -0.007655   120.791865
	   42 B(7,6,16)       =    124.577629    -0.000003    -0.010934   124.566695
	   43 B(7,8,9)        =    121.052503    -0.000001    -0.006964   121.045539
	   44 B(7,8,18)       =    117.974360    -0.000001    -0.000774   117.973586
	   45 B(7,12,11)      =    119.853814     0.000000     0.002018   119.855832
	   46 B(8,7,12)       =    119.260131    -0.000001    -0.000016   119.260116
	   47 B(8,9,10)       =    119.514828     0.000002     0.010818   119.525646
	   48 B(8,9,17)       =    120.130101    -0.000001    -0.009325   120.120776
	   49 B(9,8,18)       =    120.966277     0.000002     0.007978   120.974255
	   50 B(9,10,11)      =    120.052144    -0.000002    -0.005067   120.047077
	   51 B(9,10,13)      =    121.740787     0.000003     0.012656   121.753442
	   52 B(10,9,17)      =    120.342298    -0.000001    -0.001801   120.340497
	   53 B(10,11,12)     =    120.254190     0.000001    -0.000260   120.253930
	   54 B(10,11,20)     =    119.614203    -0.000001    -0.004914   119.609289
	   55 B(10,13,14)     =    101.223881    -0.000004    -0.020461   101.203420
	   56 B(11,10,13)     =    118.178477    -0.000002    -0.007586   118.170891
	   57 B(12,1,19)      =    118.416036     0.000001     0.002277   118.418312
	   58 B(12,11,20)     =    120.129092     0.000001     0.005126   120.134218
	   59 B(13,14,21)     =    110.871040     0.000001     0.009606   110.880646
	   60 B(13,14,22)     =    111.948825    -0.000001    -0.003474   111.945350
	   61 B(13,14,23)     =    106.136250    -0.000003    -0.013281   106.122969
	   62 B(21,14,22)     =    110.282305     0.000001     0.002184   110.284488
	   63 B(21,14,23)     =    108.953731     0.000002     0.001449   108.955181
	   64 B(22,14,23)     =    108.496761     0.000001     0.002965   108.499725
	   65 D(1,2,3,4)      =    126.725722     0.000000    -0.038521   126.687201
	   66 D(1,2,3,5)      =   -117.034266     0.000000    -0.038467  -117.072733
	   67 D(1,2,3,6)      =      4.249825    -0.000002    -0.138305     4.111519
	   68 D(1,12,7,6)     =      0.402801    -0.000001    -0.045164     0.357637
	   69 D(1,12,7,8)     =   -179.538835    -0.000000    -0.021565  -179.560401
	   70 D(1,12,11,10)   =    179.992185     0.000000     0.027322   180.019507
	   71 D(1,12,11,20)   =      0.571257     0.000000     0.032827     0.604084
	   72 D(2,1,12,7)     =     -0.179812     0.000000    -0.011330    -0.191141
	   73 D(2,1,12,11)    =   -178.981412    -0.000000    -0.064806  -179.046218
	   74 D(2,3,6,7)      =     -4.096594     0.000001     0.090608    -4.005986
	   75 D(2,3,6,16)     =    176.421463     0.000001     0.032377   176.453840
	   76 D(3,2,1,12)     =     -2.226809     0.000001     0.103599    -2.123210
	   77 D(3,2,1,19)     =    178.641627     0.000001     0.089295   178.730922
	   78 D(3,6,7,8)      =   -178.247388    -0.000001    -0.023159  -178.270547
	   79 D(3,6,7,12)     =      1.811371    -0.000000     0.000606     1.811977
	   80 D(4,3,2,15)     =    -54.237805     0.000002     0.224202   -54.013602
	   81 D(4,3,6,7)      =   -126.281411    -0.000001    -0.017803  -126.299214
	   82 D(4,3,6,16)     =     54.236647    -0.000001    -0.076035    54.160612
	   83 D(5,3,2,15)     =     62.002207     0.000002     0.224256    62.226464
	   84 D(5,3,6,7)      =    116.882759    -0.000001    -0.021572   116.861187
	   85 D(5,3,6,16)     =    -62.599184    -0.000002    -0.079803   -62.678987
	   86 D(6,3,2,15)     =   -176.713702     0.000000     0.124418  -176.589285
	   87 D(6,7,8,9)      =    179.774691     0.000000     0.011367   179.786058
	   88 D(6,7,8,18)     =      0.718578     0.000000    -0.005371     0.713206
	   89 D(6,7,12,11)    =    179.194531    -0.000000     0.008649   179.203180
	   90 D(7,8,9,10)     =      0.879949    -0.000000    -0.014931     0.865018
	   91 D(7,8,9,17)     =   -177.824552    -0.000000     0.000604  -177.823948
	   92 D(7,12,1,19)    =    178.921805     0.000000     0.003498   178.925303
	   93 D(7,12,11,10)   =      1.175163     0.000000    -0.025516     1.149647
	   94 D(7,12,11,20)   =   -178.245765    -0.000000    -0.020012  -178.265777
	   95 D(8,7,6,16)     =      1.198690    -0.000000     0.039130     1.237819
	   96 D(8,7,12,11)    =     -0.747106     0.000000     0.032248    -0.714857
	   97 D(8,9,10,11)    =     -0.448643     0.000001     0.021822    -0.426821
	   98 D(8,9,10,13)    =   -178.467868     0.000001     0.021861  -178.446008
	   99 D(9,8,7,12)     =     -0.283162    -0.000000    -0.012038    -0.295200
	  100 D(9,10,11,12)   =     -0.577191    -0.000000    -0.001686    -0.578877
	  101 D(9,10,11,20)   =    178.846719    -0.000000    -0.007104   178.839615
	  102 *D(9,10,13,14)  =    -56.013331    -0.000000    -0.000000   -56.013331
	  103 D(10,9,8,18)    =    179.907784    -0.000000     0.002222   179.910006
	  104 *D(10,13,14,21) =    -65.443885    -0.000000    -0.000000   -65.443885
	  105 D(10,13,14,22)  =     58.172690     0.000000     0.007400    58.180090
	  106 D(10,13,14,23)  =    176.380024    -0.000000     0.000957   176.380981
	  107 D(11,10,9,17)   =    178.253057     0.000000     0.006154   178.259211
	  108 *D(11,10,13,14) =    125.931677    -0.000000    -0.000000   125.931676
	  109 D(11,12,1,19)   =      0.120205    -0.000000    -0.049979     0.070226
	  110 D(12,1,2,15)    =    178.756081    -0.000001    -0.164394   178.591687
	  111 D(12,7,6,16)    =   -178.742552     0.000000     0.062895  -178.679657
	  112 D(12,7,8,18)    =   -179.339275    -0.000000    -0.028776  -179.368052
	  113 D(12,11,10,13)  =    177.511820    -0.000000    -0.001327   177.510493
	  114 D(13,10,9,17)   =      0.233832     0.000000     0.006193     0.240025
	  115 D(13,10,11,20)  =     -3.064270    -0.000000    -0.006745    -3.071015
	  116 D(15,2,1,19)    =     -0.375483    -0.000001    -0.178697    -0.554180
	  117 D(17,9,8,18)    =      1.203283     0.000000     0.017757     1.221040
	  118 R(1,X)          =     -0.705894    -0.000115    -0.000053    -0.705948
	  119 R(1,Y)          =     -1.621413    -0.000358    -0.000178    -1.621591
	  120 R(1,Z)          =     -0.262414     0.000003     0.000218    -0.262196
	  121 R(2,X)          =     -1.966032     0.000193     0.000362    -1.965670
	  122 R(2,Y)          =     -1.664636     0.000210    -0.000460    -1.665096
	  123 R(2,Z)          =      0.272847     0.000157     0.001186     0.274033
	  124 R(3,X)          =     -2.414885    -0.000956    -0.000497    -2.415382
	  125 R(3,Y)          =     -0.402294     0.000740     0.000295    -0.401999
	  126 R(3,Z)          =      1.046734    -0.000650    -0.000129     1.046605
	  127 R(4,X)          =     -3.597741     0.000060    -0.000586    -3.598328
	  128 R(4,Y)          =     -0.003195    -0.000058    -0.000109    -0.003304
	  129 R(4,Z)          =      0.525818     0.000931     0.000554     0.526372
	  130 R(5,X)          =     -2.620165    -0.000487     0.000142    -2.620023
	  131 R(5,Y)          =     -0.778434    -0.000147     0.000240    -0.778194
	  132 R(5,Z)          =      2.334291     0.001983     0.000475     2.334766
	  133 R(6,X)          =     -1.456087     0.000060    -0.000038    -1.456124
	  134 R(6,Y)          =      0.820075    -0.000420    -0.000059     0.820016
	  135 R(6,Z)          =      1.061917    -0.000582     0.000151     1.062068
	  136 R(7,X)          =     -0.147639    -0.000240    -0.000082    -0.147721
	  137 R(7,Y)          =      0.652825     0.000397     0.000091     0.652916
	  138 R(7,Z)          =      0.414172     0.000253     0.000298     0.414470
	  139 R(8,X)          =      0.777749    -0.000082    -0.000062     0.777687
	  140 R(8,Y)          =      1.704917     0.000218     0.000095     1.705012
	  141 R(8,Z)          =      0.425210     0.000226     0.000265     0.425475
	  142 R(9,X)          =      2.016296    -0.000387    -0.000204     2.016092
	  143 R(9,Y)          =      1.571084    -0.000116    -0.000022     1.571062
	  144 R(9,Z)          =     -0.172693     0.000268     0.000071    -0.172622
	  145 R(10,X)         =      2.346715    -0.000007    -0.000076     2.346639
	  146 R(10,Y)         =      0.368482    -0.000233    -0.000098     0.368385
	  147 R(10,Z)         =     -0.817664     0.000409     0.000164    -0.817499
	  148 R(11,X)         =      1.433570    -0.000266    -0.000169     1.433401
	  149 R(11,Y)         =     -0.682376     0.000055    -0.000025    -0.682401
	  150 R(11,Z)         =     -0.844060     0.000262     0.000087    -0.843973
	  151 R(12,X)         =      0.190782    -0.000138    -0.000238     0.190544
	  152 R(12,Y)         =     -0.550724     0.000140     0.000124    -0.550600
	  153 R(12,Z)         =     -0.219907    -0.000013    -0.000110    -0.220018
	  154 R(13,X)         =      3.939350     0.000028    -0.000016     3.939334
	  155 R(13,Y)         =      0.117328    -0.001353    -0.000514     0.116814
	  156 R(13,Z)         =     -1.572106     0.000843     0.000381    -1.571724
	  157 R(14,X)         =      4.013335    -0.000196    -0.000147     4.013188
	  158 R(14,Y)         =      1.525187     0.000277     0.000083     1.525270
	  159 R(14,Z)         =     -2.719354    -0.000314    -0.000031    -2.719386
	  160 R(15,X)         =     -2.690214    -0.001152    -0.000721    -2.690935
	  161 R(15,Y)         =     -2.627080    -0.000587     0.000392    -2.626688
	  162 R(15,Z)         =      0.173076    -0.000589    -0.001002     0.172074
	  163 R(16,X)         =     -1.827000    -0.000571    -0.000305    -1.827305
	  164 R(16,Y)         =      1.833431     0.001349     0.000388     1.833818
	  165 R(16,Z)         =      1.608462     0.000130    -0.000431     1.608031
	  166 R(17,X)         =      2.734618    -0.000238    -0.000184     2.734434
	  167 R(17,Y)         =      2.382558     0.000054     0.000027     2.382584
	  168 R(17,Z)         =     -0.124791     0.000295     0.000081    -0.124710
	  169 R(18,X)         =      0.498329    -0.000366    -0.000171     0.498158
	  170 R(18,Y)         =      2.623411     0.000908     0.000337     2.623747
	  171 R(18,Z)         =      0.931407     0.000510     0.000237     0.931644
	  172 R(19,X)         =     -0.425290    -0.000126    -0.000125    -0.425415
	  173 R(19,Y)         =     -2.466313    -0.000256    -0.000062    -2.466375
	  174 R(19,Z)         =     -0.745784     0.000054    -0.000025    -0.745808
	  175 R(20,X)         =      1.689218     0.000070    -0.000062     1.689155
	  176 R(20,Y)         =     -1.602748    -0.000773    -0.000231    -1.602979
	  177 R(20,Z)         =     -1.361159    -0.000192    -0.000046    -1.361205
	  178 R(21,X)         =      3.251044    -0.000562    -0.000227     3.250817
	  179 R(21,Y)         =      1.434721     0.000427     0.000217     1.434938
	  180 R(21,Z)         =     -3.495825    -0.000443    -0.000134    -3.495960
	  181 R(22,X)         =      3.913238    -0.000107    -0.000049     3.913189
	  182 R(22,Y)         =      2.480197     0.000673     0.000204     2.480402
	  183 R(22,Z)         =     -2.200267     0.000395     0.000172    -2.200095
	  184 R(23,X)         =      5.001085    -0.000005    -0.000081     5.001004
	  185 R(23,Y)         =      1.485701    -0.000111    -0.000071     1.485630
	  186 R(23,Z)         =     -3.185316    -0.000164    -0.000009    -3.185326
	 ---------------------------------------------------------------------------
	Successfully symmetrized geometry.

  ==> Convergence Check <==

  Measures of convergence in internal coordinates in au.
  Criteria marked as inactive (o), active & met (*), and active & unmet ( ).
  --------------------------------------------------------------------------------------------- ~
   Step     Total Energy     Delta E     MAX Force     RMS Force      MAX Disp      RMS Disp    ~
  --------------------------------------------------------------------------------------------- ~
    Convergence Criteria             o    2.50e-03 *    1.70e-03 *    1.00e-02 *    6.70e-03 *  ~
  --------------------------------------------------------------------------------------------- ~
      1   -1188.12015997   -1.19e+03 o    3.24e-04 *    6.52e-05 *    3.91e-03 *    7.73e-04 *  ~
  ---------------------------------------------------------------------------------------------


  **** Optimization is complete! (in 1 steps) ****

  ==> Optimization Summary <==

  Measures of convergence in internal coordinates in au.
  --------------------------------------------------------------------------------------------------------------- ~
   Step         Total Energy             Delta E       MAX Force       RMS Force        MAX Disp        RMS Disp  ~
  --------------------------------------------------------------------------------------------------------------- ~
      1   -1188.120159968168  -1188.120159968168      0.00032445      0.00006523      0.00391401      0.00077263  ~
  --------------------------------------------------------------------------------------------------------------- ~

	Writing optimization data to binary file.
	Final energy is  -1188.1201599681679
	Final (previous) structure:
	Cartesian Geometry (in Angstrom)
	    N    -0.7058942496  -1.6214131469  -0.2624142281
	    C    -1.9660322341  -1.6646358999   0.2728466655
	    C    -2.4148853941  -0.4022943649   1.0467343976
	    F    -3.5977413961  -0.0031947185   0.5258182329
	    F    -2.6201649287  -0.7784343964   2.3342910709
	    C    -1.4560868404   0.8200752562   1.0619168661
	    C    -0.1476393512   0.6528251562   0.4141723173
	    C     0.7777486427   1.7049167111   0.4252100376
	    C     2.0162964030   1.5710838257  -0.1726928957
	    C     2.3467152377   0.3684824215  -0.8176637014
	    C     1.4335702065  -0.6823764937  -0.8440598425
	    C     0.1907818509  -0.5507241248  -0.2199074561
	    S     3.9393497998   0.1173282433  -1.5721055485
	    C     4.0133348444   1.5251873396  -2.7193540949
	    O    -2.6902142911  -2.6270798849   0.1730759845
	    O    -1.8269999262   1.8334308259   1.6084619428
	    H     2.7346180919   2.3825575281  -0.1247907806
	    H     0.4983285526   2.6234105875   0.9314070333
	    H    -0.4252898095  -2.4663133967  -0.7457837183
	    H     1.6892175128  -1.6027481333  -1.3611587501
	    H     3.2510439412   1.4347213265  -3.4958254607
	    H     3.9132379936   2.4801974903  -2.2002674531
	    H     5.0010849040   1.4857006552  -3.1853163186
	Saving final (previous) structure.
			--------------------------
			 OPTKING Finished Execution 
			--------------------------

    Final optimized geometry and variables:
    Molecular point group: c1
    Full point group: C1

    Geometry (in Angstrom), charge = 0, multiplicity = 1:

    N           -0.705894252336    -1.621413153224    -0.262414229119
    C           -1.966032241826    -1.664635906453     0.272846666550
    C           -2.414885403556    -0.402294366467     1.046734401748
    F           -3.597741410256    -0.003194718516     0.525818234925
    F           -2.620164938949    -0.778434399505     2.334291080049
    C           -1.456086846167     0.820075259445     1.061916870317
    C           -0.147639351753     0.652825158743     0.414172318899
    C            0.777748645715     1.704916717777     0.425210039304
    C            2.016296410905     1.571083831895    -0.172692896394
    C            2.346715246969     0.368482422931    -0.817663704604
    C            1.433570212122    -0.682376496404    -0.844059845867
    C            0.190781851676    -0.550724126969    -0.219907456963
    S            3.939349815289     0.117328243788    -1.572105554713
    C            4.013334860127     1.525187345588    -2.719354105575
    O           -2.690214301698    -2.627079895229     0.173075985228
    O           -1.826999933333     1.833430833119     1.608461949106
    H            2.734618102697     2.382557537512    -0.124790781127
    H            0.498328554515     2.623410597783     0.931407037005
    H           -0.425289811166    -2.466313406387    -0.745783721227
    H            1.689217519428    -1.602748139581    -1.361158755433
    H            3.251043953984     1.434721332104    -3.495825474439
    H            3.913238008975     2.480197500035    -2.200267461720
    H            5.001084923616     1.485700661078    -3.185316331107

	Removing binary optimization data file.
	Cleaning optimization helper files.

    Psi4 stopped on: Tuesday, 22 June 2021 12:54AM
    Psi4 wall time for execution: 0:26:47.34

*** Psi4 exiting successfully. Buy a developer a beer!
