
    -----------------------------------------------------------------------
          Psi4: An Open-Source Ab Initio Electronic Structure Package
                               Psi4 1.3.2 release

                         Git: Rev {HEAD} ecbda83 


    R. M. Parrish, L. A. Burns, D. G. A. Smith, A. C. Simmonett,
    A. E. DePrince III, E. G. Hohenstein, U. Bozkaya, A. Yu. Sokolov,
    R. Di Remigio, R. M. Richard, J. F. Gonthier, A. M. James,
    H. R. McAlexander, A. Kumar, M. Saitow, X. Wang, B. P. Pritchard,
    P. Verma, H. F. Schaefer III, K. Patkowski, R. A. King, E. F. Valeev,
    F. A. Evangelista, J. M. Turney, T. D. Crawford, and C. D. Sherrill,
    J. Chem. Theory Comput. 13(7) pp 3185--3197 (2017).
    (doi: 10.1021/acs.jctc.7b00174)


                         Additional Contributions by
    P. Kraus, H. Kruse, M. H. Lechner, M. C. Schieber, R. A. Shaw,
    A. Alenaizan, R. Galvelis, Z. L. Glick, S. Lehtola, and J. P. Misiewicz

    -----------------------------------------------------------------------


    Psi4 started on: Tuesday, 22 June 2021 06:22AM

    Process ID: 29169
    Host:       cpu-spot-dy-c5n2xlarge-1
    PSIDATADIR: /fsx/users/francis/anaconda3/envs/poltype-dev/share/psi4
    Memory:     500.0 MiB
    Threads:    1
    
  ==> Input File <==

--------------------------------------------------------------------------
molecule { 
0 1
 N   -1.082623   -1.492705    0.065715
 C   -2.377167   -1.157520    0.365135
 C   -2.673696    0.372363    0.505416
 F   -3.559582    0.713094   -0.491697
 F   -3.295593    0.566778    1.719110
 C   -1.452036    1.352148    0.420208
 C   -0.130940    0.772515    0.084685
 C    0.999938    1.609057   -0.038755
 C    2.254813    1.083766   -0.373023
 C    2.415104   -0.312681   -0.586529
 C    1.288905   -1.151252   -0.430427
 C    0.026451   -0.628758   -0.099329
 S    3.932525   -1.140436   -1.000147
 C    5.233378    0.121845   -0.956326
 O   -3.227693   -2.026542    0.492306
 O   -1.604332    2.556259    0.603115
 H    3.090318    1.775525   -0.468732
 H    0.869434    2.679435    0.123765
 H   -0.958259   -2.491712   -0.025856
 H    1.398014   -2.227124   -0.575810
 H    6.202331   -0.365938   -1.100756
 H    5.064593    0.846178   -1.759247
 H    5.224149    0.623644    0.016217
}
set optking { 
  frozen_dihedral = ("
    11 10 13 14
    9 10 13 14
    21 14 13 10
  ")
}
set {
  geom_maxiter 400
  g_convergence GAU_LOOSE
  dynamic_level 1
}
memory 16GB
set_num_threads(8)
psi4_io.set_default_path("/scratch/Psi4-ligand")
for _ in range(1):
  try:
    set opt_coordinates both
    optimize('wb97x-d/6-31+G*')
    break
  except OptimizationConvergenceError:
    break
  else:
    try:
      set opt_coordinates cartesian
      optimize('wb97x-d/6-31+G*')
      break
    except OptimizationConvergenceError:
      pass
clean()
--------------------------------------------------------------------------

  Memory set to  14.901 GiB by Python driver.
  Threads set to 8 by Python driver.
gradient() will perform analytic gradient computation.

*** tstart() called on cpu-spot-dy-c5n2xlarge-1
*** at Tue Jun 22 06:22:21 2021

   => Loading Basis Set <=

    Name: 6-31+G*
    Role: ORBITAL
    Keyword: BASIS
    atoms 1             entry N          line   138 file /fsx/users/francis/anaconda3/envs/poltype-dev/share/psi4/basis/6-31pgs.gbs 
    atoms 2-3, 6-12, 14 entry C          line   119 file /fsx/users/francis/anaconda3/envs/poltype-dev/share/psi4/basis/6-31pgs.gbs 
    atoms 4-5           entry F          line   176 file /fsx/users/francis/anaconda3/envs/poltype-dev/share/psi4/basis/6-31pgs.gbs 
    atoms 13            entry S          line   344 file /fsx/users/francis/anaconda3/envs/poltype-dev/share/psi4/basis/6-31pgs.gbs 
    atoms 15-16         entry O          line   157 file /fsx/users/francis/anaconda3/envs/poltype-dev/share/psi4/basis/6-31pgs.gbs 
    atoms 17-23         entry H          line    46 file /fsx/users/francis/anaconda3/envs/poltype-dev/share/psi4/basis/6-31pgs.gbs 


         ---------------------------------------------------------
                                   SCF
               by Justin Turney, Rob Parrish, Andy Simmonett
                          and Daniel G. A. Smith
                              RKS Reference
                        8 Threads,  15258 MiB Core
         ---------------------------------------------------------

  ==> Geometry <==

    Molecular point group: c1
    Full point group: C1

    Geometry (in Angstrom), charge = 0, multiplicity = 1:

       Center              X                  Y                   Z               Mass       
    ------------   -----------------  -----------------  -----------------  -----------------
         N           -1.046068959427    -1.496853359285     0.095934858040    14.003074004430
         C           -2.340612959427    -1.161668359285     0.395354858040    12.000000000000
         C           -2.637141959427     0.368214640715     0.535635858040    12.000000000000
         F           -3.523027959427     0.708945640715    -0.461477141960    18.998403162730
         F           -3.259038959427     0.562629640715     1.749329858040    18.998403162730
         C           -1.415481959427     1.347999640715     0.450427858040    12.000000000000
         C           -0.094385959427     0.768366640715     0.114904858040    12.000000000000
         C            1.036492040573     1.604908640715    -0.008535141960    12.000000000000
         C            2.291367040573     1.079617640715    -0.342803141960    12.000000000000
         C            2.451658040573    -0.316829359285    -0.556309141960    12.000000000000
         C            1.325459040573    -1.155400359285    -0.400207141960    12.000000000000
         C            0.063005040573    -0.632906359285    -0.069109141960    12.000000000000
         S            3.969079040573    -1.144584359285    -0.969927141960    31.972071174400
         C            5.269932040573     0.117696640715    -0.926106141960    12.000000000000
         O           -3.191138959427    -2.030690359285     0.522525858040    15.994914619570
         O           -1.567777959427     2.552110640715     0.633334858040    15.994914619570
         H            3.126872040573     1.771376640715    -0.438512141960     1.007825032230
         H            0.905988040573     2.675286640715     0.153984858040     1.007825032230
         H           -0.921704959427    -2.495860359285     0.004363858040     1.007825032230
         H            1.434568040573    -2.231272359285    -0.545590141960     1.007825032230
         H            6.238885040573    -0.370086359285    -1.070536141960     1.007825032230
         H            5.101147040573     0.842029640715    -1.729027141960     1.007825032230
         H            5.260703040573     0.619495640715     0.046436858040     1.007825032230

  Running in c1 symmetry.

  Rotational constants: A =      0.03854  B =      0.00809  C =      0.00696 [cm^-1]
  Rotational constants: A =   1155.54462  B =    242.67599  C =    208.76307 [MHz]
  Nuclear repulsion = 1174.414222123618401

  Charge       = 0
  Multiplicity = 1
  Electrons    = 124
  Nalpha       = 62
  Nbeta        = 62

  ==> Algorithm <==

  SCF Algorithm Type is DF.
  DIIS enabled.
  MOM disabled.
  Fractional occupation disabled.
  Guess Type is SAD.
  Energy threshold   = 1.00e-08
  Density threshold  = 1.00e-08
  Integral threshold = 0.00e+00

  ==> Primary Basis <==

  Basis Set: 6-31+G*
    Blend: 6-31+G*
    Number of shells: 144
    Number of basis function: 322
    Number of Cartesian functions: 322
    Spherical Harmonics?: false
    Max angular momentum: 2

  ==> DFT Potential <==

   => Composite Functional: WB97X-D <= 

    wB97X-D Hyb-GGA Exchange-Correlation Functional

    J.-D. Chai and M. Head-Gordon, Phys. Chem. Chem. Phys. 10, 6615 (2008)

    Deriv               =              1
    GGA                 =           TRUE
    Meta                =          FALSE

    Exchange Hybrid     =           TRUE
    MP2 Hybrid          =          FALSE

   => Exchange-Correlation Functionals <=

    1.0000   wB97D range-separated functional

   => Exact (HF) Exchange <=

    0.7780            HF,LR [omega = 0.2000]
    0.2220               HF 

   => Molecular Quadrature <=

    Radial Scheme          =       TREUTLER
    Pruning Scheme         =           FLAT
    Nuclear Scheme         =       TREUTLER

    BS radius alpha        =              1
    Pruning alpha          =              1
    Radial Points          =             75
    Spherical Points       =            302
    Total Points           =         520855
    Total Blocks           =           3869
    Max Points             =            256
    Max Functions          =            288

   => WB97X-D: Empirical Dispersion <=

    Chai and Head-Gordon Dispersion Correction
    Chai, J.-D.; Head-Gordon, M. (2010), J. Chem. Phys., 132: 6615-6620

        s6 =       1.000000

   => Loading Basis Set <=

    Name: (6-31+G* AUX)
    Role: JKFIT
    Keyword: DF_BASIS_SCF
    atoms 1             entry N          line   252 file /fsx/users/francis/anaconda3/envs/poltype-dev/share/psi4/basis/heavy-aug-cc-pvdz-jkfit.gbs 
    atoms 2-3, 6-12, 14 entry C          line   194 file /fsx/users/francis/anaconda3/envs/poltype-dev/share/psi4/basis/heavy-aug-cc-pvdz-jkfit.gbs 
    atoms 4-5           entry F          line   368 file /fsx/users/francis/anaconda3/envs/poltype-dev/share/psi4/basis/heavy-aug-cc-pvdz-jkfit.gbs 
    atoms 13            entry S          line   730 file /fsx/users/francis/anaconda3/envs/poltype-dev/share/psi4/basis/heavy-aug-cc-pvdz-jkfit.gbs 
    atoms 15-16         entry O          line   310 file /fsx/users/francis/anaconda3/envs/poltype-dev/share/psi4/basis/heavy-aug-cc-pvdz-jkfit.gbs 
    atoms 17-23         entry H          line   116 file /fsx/users/francis/anaconda3/envs/poltype-dev/share/psi4/basis/heavy-aug-cc-pvdz-jkfit.gbs 

  ==> Pre-Iterations <==

   -------------------------------------------------------
    Irrep   Nso     Nmo     Nalpha   Nbeta   Ndocc  Nsocc
   -------------------------------------------------------
     A        322     322       0       0       0       0
   -------------------------------------------------------
    Total     322     322      62      62      62       0
   -------------------------------------------------------

  ==> Integral Setup <==

  ==> DiskDFJK: Density-Fitted J/K Matrices <==

    J tasked:                  Yes
    K tasked:                  Yes
    wK tasked:                 Yes
    Omega:               2.000E-01
    OpenMP threads:              8
    Integrals threads:           8
    Memory [MiB]:             8461
    Algorithm:                Core
    Integral Cache:           NONE
    Schwarz Cutoff:          1E-12
    Fitting Condition:       1E-10

   => Auxiliary Basis Set <=

  Basis Set: (6-31+G* AUX)
    Blend: HEAVY-AUG-CC-PVDZ-JKFIT
    Number of shells: 523
    Number of basis function: 1840
    Number of Cartesian functions: 1840
    Spherical Harmonics?: false
    Max angular momentum: 3

  Cached 100.0% of DFT collocation blocks in 2.913 [GiB].

  Minimum eigenvalue in the overlap matrix is 5.0954790563E-07.
  Using Symmetric Orthogonalization.

  SCF Guess: Superposition of Atomic Densities via on-the-fly atomic UHF.

  ==> Iterations <==

                           Total Energy        Delta E     RMS |[F,P]|

   @DF-RKS iter SAD: -1187.20897314349440   -1.18721e+03   0.00000e+00 
   @DF-RKS iter   1: -1187.53807859763242   -3.29105e-01   3.40135e-03 DIIS
   @DF-RKS iter   2: -1187.54868675286411   -1.06082e-02   3.70616e-03 DIIS
   @DF-RKS iter   3: -1188.08786974234954   -5.39183e-01   7.83799e-04 DIIS
   @DF-RKS iter   4: -1188.11208371337193   -2.42140e-02   2.67277e-04 DIIS
   @DF-RKS iter   5: -1188.11560849261355   -3.52478e-03   7.20908e-05 DIIS
   @DF-RKS iter   6: -1188.11600833330067   -3.99841e-04   2.36839e-05 DIIS
   @DF-RKS iter   7: -1188.11606898538002   -6.06521e-05   1.02365e-05 DIIS
   @DF-RKS iter   8: -1188.11608536232893   -1.63769e-05   3.92923e-06 DIIS
   @DF-RKS iter   9: -1188.11608818006357   -2.81773e-06   2.14646e-06 DIIS
   @DF-RKS iter  10: -1188.11608852571703   -3.45653e-07   7.22700e-07 DIIS
   @DF-RKS iter  11: -1188.11608857568899   -4.99720e-08   3.21487e-07 DIIS
   @DF-RKS iter  12: -1188.11608858590262   -1.02136e-08   1.48057e-07 DIIS
   @DF-RKS iter  13: -1188.11608858841032   -2.50770e-09   5.67625e-08 DIIS
   @DF-RKS iter  14: -1188.11608858869545   -2.85127e-10   2.44718e-08 DIIS
   @DF-RKS iter  15: -1188.11608858875161   -5.61613e-11   1.16590e-08 DIIS
   @DF-RKS iter  16: -1188.11608858876002   -8.41283e-12   6.24547e-09 DIIS
  Energy and wave function converged.


  ==> Post-Iterations <==

    Orbital Energies [Eh]
    ---------------------

    Doubly Occupied:                                                      

       1A    -89.085939     2A    -24.874525     3A    -24.871510  
       4A    -19.304924     5A    -19.293402     6A    -14.542274  
       7A    -10.510198     8A    -10.458163     9A    -10.435238  
      10A    -10.411088    11A    -10.393640    12A    -10.358970  
      13A    -10.355337    14A    -10.352921    15A    -10.352704  
      16A    -10.347260    17A     -8.103290    18A     -6.054023  
      19A     -6.049491    20A     -6.043451    21A     -1.381367  
      22A     -1.324929    23A     -1.188588    24A     -1.174592  
      25A     -1.091577    26A     -0.999419    27A     -0.940792  
      28A     -0.904104    29A     -0.885838    30A     -0.869222  
      31A     -0.797827    32A     -0.763373    33A     -0.750338  
      34A     -0.744028    35A     -0.693173    36A     -0.678254  
      37A     -0.665596    38A     -0.643958    39A     -0.627808  
      40A     -0.589171    41A     -0.583344    42A     -0.564518  
      43A     -0.561724    44A     -0.556060    45A     -0.553868  
      46A     -0.552108    47A     -0.548485    48A     -0.535823  
      49A     -0.523019    50A     -0.515931    51A     -0.506627  
      52A     -0.498568    53A     -0.490847    54A     -0.485537  
      55A     -0.474581    56A     -0.438811    57A     -0.430023  
      58A     -0.395651    59A     -0.395021    60A     -0.367446  
      61A     -0.339567    62A     -0.318635  

    Virtual:                                                              

      63A     -0.046552    64A      0.011611    65A      0.039364  
      66A      0.047359    67A      0.052070    68A      0.064892  
      69A      0.066748    70A      0.074618    71A      0.080214  
      72A      0.088069    73A      0.092414    74A      0.094626  
      75A      0.104943    76A      0.111447    77A      0.114725  
      78A      0.116509    79A      0.118935    80A      0.133714  
      81A      0.136450    82A      0.138414    83A      0.145110  
      84A      0.149467    85A      0.155243    86A      0.161659  
      87A      0.171775    88A      0.173780    89A      0.177423  
      90A      0.180377    91A      0.182396    92A      0.189841  
      93A      0.192620    94A      0.196570    95A      0.202935  
      96A      0.205978    97A      0.214706    98A      0.216354  
      99A      0.219420   100A      0.227594   101A      0.233652  
     102A      0.237098   103A      0.239727   104A      0.243569  
     105A      0.246975   106A      0.247608   107A      0.254474  
     108A      0.261724   109A      0.264225   110A      0.272201  
     111A      0.277722   112A      0.283160   113A      0.285330  
     114A      0.288044   115A      0.297635   116A      0.301044  
     117A      0.306384   118A      0.314238   119A      0.317023  
     120A      0.326425   121A      0.329091   122A      0.331417  
     123A      0.334293   124A      0.341374   125A      0.354156  
     126A      0.358352   127A      0.362050   128A      0.373479  
     129A      0.379865   130A      0.386189   131A      0.392004  
     132A      0.393452   133A      0.395543   134A      0.402108  
     135A      0.411423   136A      0.419667   137A      0.433587  
     138A      0.440068   139A      0.445156   140A      0.450671  
     141A      0.463166   142A      0.471811   143A      0.477270  
     144A      0.484734   145A      0.505891   146A      0.509348  
     147A      0.522736   148A      0.530053   149A      0.535477  
     150A      0.556464   151A      0.574479   152A      0.579387  
     153A      0.585229   154A      0.593051   155A      0.605322  
     156A      0.625786   157A      0.655490   158A      0.663974  
     159A      0.670140   160A      0.694485   161A      0.727862  
     162A      0.743688   163A      0.754139   164A      0.758922  
     165A      0.769105   166A      0.774044   167A      0.788580  
     168A      0.797998   169A      0.802176   170A      0.813329  
     171A      0.822878   172A      0.838307   173A      0.860665  
     174A      0.877903   175A      0.882876   176A      0.896574  
     177A      0.913499   178A      0.921839   179A      0.924943  
     180A      0.932031   181A      0.962357   182A      0.968289  
     183A      0.978286   184A      0.986071   185A      1.012333  
     186A      1.025879   187A      1.043129   188A      1.051029  
     189A      1.056790   190A      1.076229   191A      1.088078  
     192A      1.100343   193A      1.119260   194A      1.149536  
     195A      1.156726   196A      1.170820   197A      1.201579  
     198A      1.205476   199A      1.211280   200A      1.229804  
     201A      1.238630   202A      1.248233   203A      1.270088  
     204A      1.278121   205A      1.283379   206A      1.320609  
     207A      1.322582   208A      1.336222   209A      1.342150  
     210A      1.394151   211A      1.401099   212A      1.408251  
     213A      1.413537   214A      1.419629   215A      1.442301  
     216A      1.448933   217A      1.453157   218A      1.464804  
     219A      1.469563   220A      1.486666   221A      1.509714  
     222A      1.519096   223A      1.526354   224A      1.532326  
     225A      1.558616   226A      1.592476   227A      1.619366  
     228A      1.651421   229A      1.663551   230A      1.672902  
     231A      1.708570   232A      1.747924   233A      1.755938  
     234A      1.758682   235A      1.759764   236A      1.764038  
     237A      1.772572   238A      1.782223   239A      1.788941  
     240A      1.818116   241A      1.838763   242A      1.864291  
     243A      1.874221   244A      1.893197   245A      1.900402  
     246A      1.912289   247A      1.920115   248A      1.945875  
     249A      1.962675   250A      1.968739   251A      1.972724  
     252A      2.004954   253A      2.039647   254A      2.048087  
     255A      2.055971   256A      2.060982   257A      2.076557  
     258A      2.091528   259A      2.099978   260A      2.113153  
     261A      2.145093   262A      2.152457   263A      2.166748  
     264A      2.199446   265A      2.205517   266A      2.209089  
     267A      2.243756   268A      2.254324   269A      2.262976  
     270A      2.280007   271A      2.302173   272A      2.307897  
     273A      2.310780   274A      2.344901   275A      2.349257  
     276A      2.366931   277A      2.383521   278A      2.403969  
     279A      2.461651   280A      2.467320   281A      2.510021  
     282A      2.512821   283A      2.568303   284A      2.625941  
     285A      2.656845   286A      2.678276   287A      2.703583  
     288A      2.730654   289A      2.738973   290A      2.767390  
     291A      2.780728   292A      2.826939   293A      2.832489  
     294A      2.851032   295A      2.898522   296A      2.943010  
     297A      2.960119   298A      3.029408   299A      3.111537  
     300A      3.154325   301A      3.216217   302A      3.241410  
     303A      3.336545   304A      3.378289   305A      3.461747  
     306A      3.482191   307A      4.035481   308A      4.278618  
     309A      4.328916   310A      4.334980   311A      4.360505  
     312A      4.376744   313A      4.415159   314A      4.468428  
     315A      4.486694   316A      4.521012   317A      4.580027  
     318A      4.778021   319A      4.833849   320A      5.096413  
     321A      5.715389   322A      7.116630  

    Final Occupation by Irrep:
              A 
    DOCC [    62 ]

  @DF-RKS Final Energy: -1188.11608858876002

   => Energetics <=

    Nuclear Repulsion Energy =           1174.4142221236184014
    One-Electron Energy =               -3962.9019118471533147
    Two-Electron Energy =                1689.8245720026654908
    DFT Exchange-Correlation Energy =     -89.4393743377688395
    Empirical Dispersion Energy =          -0.0135965301218023
    VV10 Nonlocal Energy =                  0.0000000000000000
    Total Energy =                      -1188.1160885887600216

Computation Completed


Properties will be evaluated at   0.000000,   0.000000,   0.000000 [a0]

Properties computed using the SCF density matrix

  Nuclear Dipole Moment: [e a0]
     X:    26.3070      Y:    -0.4626      Z:    -4.5903

  Electronic Dipole Moment: [e a0]
     X:   -23.0682      Y:     0.1142      Z:     3.9801

  Dipole Moment: [e a0]
     X:     3.2387      Y:    -0.3485      Z:    -0.6103     Total:     3.3141

  Dipole Moment: [D]
     X:     8.2320      Y:    -0.8857      Z:    -1.5511     Total:     8.4236


*** tstop() called on cpu-spot-dy-c5n2xlarge-1 at Tue Jun 22 06:23:37 2021
Module time:
	user time   =     561.81 seconds =       9.36 minutes
	system time =      10.31 seconds =       0.17 minutes
	total time  =         76 seconds =       1.27 minutes
Total time:
	user time   =     561.81 seconds =       9.36 minutes
	system time =      10.31 seconds =       0.17 minutes
	total time  =         76 seconds =       1.27 minutes

*** tstart() called on cpu-spot-dy-c5n2xlarge-1
*** at Tue Jun 22 06:23:37 2021


         ------------------------------------------------------------
                                   SCF GRAD                          
                          Rob Parrish, Justin Turney,                
                       Andy Simmonett, and Alex Sokolov              
         ------------------------------------------------------------

  ==> Geometry <==

    Molecular point group: c1
    Full point group: C1

    Geometry (in Angstrom), charge = 0, multiplicity = 1:

       Center              X                  Y                   Z               Mass       
    ------------   -----------------  -----------------  -----------------  -----------------
         N           -1.046068959427    -1.496853359285     0.095934858040    14.003074004430
         C           -2.340612959427    -1.161668359285     0.395354858040    12.000000000000
         C           -2.637141959427     0.368214640715     0.535635858040    12.000000000000
         F           -3.523027959427     0.708945640715    -0.461477141960    18.998403162730
         F           -3.259038959427     0.562629640715     1.749329858040    18.998403162730
         C           -1.415481959427     1.347999640715     0.450427858040    12.000000000000
         C           -0.094385959427     0.768366640715     0.114904858040    12.000000000000
         C            1.036492040573     1.604908640715    -0.008535141960    12.000000000000
         C            2.291367040573     1.079617640715    -0.342803141960    12.000000000000
         C            2.451658040573    -0.316829359285    -0.556309141960    12.000000000000
         C            1.325459040573    -1.155400359285    -0.400207141960    12.000000000000
         C            0.063005040573    -0.632906359285    -0.069109141960    12.000000000000
         S            3.969079040573    -1.144584359285    -0.969927141960    31.972071174400
         C            5.269932040573     0.117696640715    -0.926106141960    12.000000000000
         O           -3.191138959427    -2.030690359285     0.522525858040    15.994914619570
         O           -1.567777959427     2.552110640715     0.633334858040    15.994914619570
         H            3.126872040573     1.771376640715    -0.438512141960     1.007825032230
         H            0.905988040573     2.675286640715     0.153984858040     1.007825032230
         H           -0.921704959427    -2.495860359285     0.004363858040     1.007825032230
         H            1.434568040573    -2.231272359285    -0.545590141960     1.007825032230
         H            6.238885040573    -0.370086359285    -1.070536141960     1.007825032230
         H            5.101147040573     0.842029640715    -1.729027141960     1.007825032230
         H            5.260703040573     0.619495640715     0.046436858040     1.007825032230

  Nuclear repulsion = 1174.414222123618401

  ==> Basis Set <==

  Basis Set: 6-31+G*
    Blend: 6-31+G*
    Number of shells: 144
    Number of basis function: 322
    Number of Cartesian functions: 322
    Spherical Harmonics?: false
    Max angular momentum: 2

  ==> DFJKGrad: Density-Fitted SCF Gradients <==

    Gradient:                    1
    J tasked:                  Yes
    K tasked:                  Yes
    wK tasked:                 Yes
    Omega:               2.000E-01
    OpenMP threads:              8
    Integrals threads:           8
    Memory [MiB]:            11444
    Schwarz Cutoff:          0E+00
    Fitting Condition:       1E-10

   => Auxiliary Basis Set <=

  Basis Set: (6-31+G* AUX)
    Blend: HEAVY-AUG-CC-PVDZ-JKFIT
    Number of shells: 523
    Number of basis function: 1840
    Number of Cartesian functions: 1840
    Spherical Harmonics?: false
    Max angular momentum: 3

  ==> DFT Potential <==

   => Composite Functional: WB97X-D <= 

    wB97X-D Hyb-GGA Exchange-Correlation Functional

    J.-D. Chai and M. Head-Gordon, Phys. Chem. Chem. Phys. 10, 6615 (2008)

    Deriv               =              1
    GGA                 =           TRUE
    Meta                =          FALSE

    Exchange Hybrid     =           TRUE
    MP2 Hybrid          =          FALSE

   => Exchange-Correlation Functionals <=

    1.0000   wB97D range-separated functional

   => Exact (HF) Exchange <=

    0.7780            HF,LR [omega = 0.2000]
    0.2220               HF 

   => Molecular Quadrature <=

    Radial Scheme          =       TREUTLER
    Pruning Scheme         =           FLAT
    Nuclear Scheme         =       TREUTLER

    BS radius alpha        =              1
    Pruning alpha          =              1
    Radial Points          =             75
    Spherical Points       =            302
    Total Points           =         520855
    Total Blocks           =           3869
    Max Points             =            256
    Max Functions          =            288


  -Total Gradient:
     Atom            X                  Y                   Z
    ------   -----------------  -----------------  -----------------
       1       -0.009312740560    -0.011056347546     0.001762257489
       2        0.008170296438     0.011550144558    -0.000366198840
       3        0.012056548005    -0.003874687349    -0.006258647605
       4       -0.010856300473     0.004229532906    -0.012236789850
       5       -0.008476863412     0.002932063748     0.018294958865
       6       -0.008837365157    -0.021822208336     0.000161585774
       7       -0.000649437045     0.007477494442    -0.000810400555
       8       -0.002435320475     0.013363525088     0.003836323328
       9        0.005465832638     0.003024182201    -0.000298161046
      10        0.008118911641    -0.009197082771    -0.006571111416
      11        0.004702774844    -0.002802361310     0.000182330682
      12       -0.002307429455    -0.005906342372    -0.000094846419
      13        0.003971570730     0.004801396467    -0.000131559357
      14        0.010092757645    -0.008414854927    -0.001678600685
      15       -0.008996374960    -0.021651578335     0.000322330118
      16        0.005432596831     0.029079242911     0.002185131321
      17        0.000691085783     0.003757077822     0.000227226356
      18       -0.000562387805     0.003752663207     0.000849088903
      19       -0.004007815583     0.001658442808     0.001213567955
      20        0.000198308065    -0.002367036263    -0.000765145924
      21        0.004201274653     0.002649457134     0.000212056256
      22       -0.003447044311    -0.000780262728    -0.001399520144
      23       -0.002522476070    -0.000754091324     0.001270391041


*** tstop() called on cpu-spot-dy-c5n2xlarge-1 at Tue Jun 22 06:24:00 2021
Module time:
	user time   =     147.19 seconds =       2.45 minutes
	system time =       3.68 seconds =       0.06 minutes
	total time  =         23 seconds =       0.38 minutes
Total time:
	user time   =     709.01 seconds =      11.82 minutes
	system time =      13.99 seconds =       0.23 minutes
	total time  =         99 seconds =       1.65 minutes

			-----------------------------------------
			 OPTKING 2.0: for geometry optimizations 
			  - R.A. King,  Bethel University        
			-----------------------------------------
	At level 1: Red. Int., RFO, no backsteps, dynamic trust

	Internal coordinates to be generated automatically.
	Detected frag 1 with atoms:  1 2 3 4 5 6 7 8 9 10 11 12 13 14 15 16 17 18 19 20
	 21 22 23
	---Fragment 1 Bond Connectivity---
	 1 : 2 12 19
	 2 : 1 3 15
	 3 : 2 4 5 6
	 4 : 3
	 5 : 3
	 6 : 3 7 16
	 7 : 6 8 12
	 8 : 7 9 18
	 9 : 8 10 17
	 10 : 9 11 13
	 11 : 10 12 20
	 12 : 1 7 11
	 13 : 10 14
	 14 : 13 21 22 23
	 15 : 2
	 16 : 6
	 17 : 9
	 18 : 8
	 19 : 1
	 20 : 11
	 21 : 14
	 22 : 14
	 23 : 14

	Assuming in current code that numbering for constraints corresponds to unified fragment.
	Frozen dihedral atom list: 
	    11    10    13    14
	     9    10    13    14
	    21    14    13    10
	---Fragment 1 Geometry and Gradient---
	 N          -1.9767838417       -2.8286428990        0.1812906076
	 C          -4.4231174590       -2.1952350477        0.7471124041
	 C          -4.9834760573        0.6958248263        1.0122050747
	 F          -6.6575579756        1.3397130988       -0.8720654115
	 F          -6.1586910655        1.0632159310        3.3057543348
	 C          -2.6748732388        2.5473501382        0.8511852910
	 C          -0.1783636134        1.4520025149        0.2171387122
	 C           1.9586860879        3.0328377873       -0.0161290807
	 C           4.3300561596        2.0401816612       -0.6478040533
	 C           4.6329622500       -0.5987207176       -1.0512719194
	 C           2.5047545772       -2.1833902443       -0.7562818918
	 C           0.1190622712       -1.1960196821       -0.1305973511
	 S           7.5004723570       -2.1629509665       -1.8328966600
	 C           9.9587282565        0.2224144168       -1.7500869714
	 O          -6.0303786616       -3.8374486247        0.9874307652
	 O          -2.9626709688        4.8227901528        1.1968294274
	 H           5.9089317860        3.3474167160       -0.8286678510
	 H           1.7120692696        5.0555590580        0.2909892092
	 H          -1.7417699418       -4.7164925264        0.0082464965
	 H           2.7109407050       -4.2164936704       -1.0310159451
	 H          11.7897840549       -0.6993618618       -2.0230201157
	 H           9.6397708324        1.5912054105       -3.2673877618
	 H           9.9412879740        1.1706770969        0.0877529438
	            -0.0093127406       -0.0110563475        0.0017622575
	             0.0081702964        0.0115501446       -0.0003661988
	             0.0120565480       -0.0038746873       -0.0062586476
	            -0.0108563005        0.0042295329       -0.0122367898
	            -0.0084768634        0.0029320637        0.0182949589
	            -0.0088373652       -0.0218222083        0.0001615858
	            -0.0006494370        0.0074774944       -0.0008104006
	            -0.0024353205        0.0133635251        0.0038363233
	             0.0054658326        0.0030241822       -0.0002981610
	             0.0081189116       -0.0091970828       -0.0065711114
	             0.0047027748       -0.0028023613        0.0001823307
	            -0.0023074295       -0.0059063424       -0.0000948464
	             0.0039715707        0.0048013965       -0.0001315594
	             0.0100927576       -0.0084148549       -0.0016786007
	            -0.0089963750       -0.0216515783        0.0003223301
	             0.0054325968        0.0290792429        0.0021851313
	             0.0006910858        0.0037570778        0.0002272264
	            -0.0005623878        0.0037526632        0.0008490889
	            -0.0040078156        0.0016584428        0.0012135680
	             0.0001983081       -0.0023670363       -0.0007651459
	             0.0042012747        0.0026494571        0.0002120563
	            -0.0034470443       -0.0007802627       -0.0013995201
	            -0.0025224761       -0.0007540913        0.0012703910

	Previous optimization step data not found.  Starting new optimization.

	---Fragment 1 Intrafragment Coordinates---
	 - Coordinate -           - BOHR/RAD -       - ANG/DEG -
	 R(1,2)           =         2.589577	       1.370345
	 R(1,12)          =         2.674940	       1.415517
	 R(1,19)          =         1.910275	       1.010874
	 R(2,3)           =         2.956772	       1.564657
	 R(2,15)          =         2.310391	       1.222606
	 R(3,4)           =         2.601465	       1.376636
	 R(3,5)           =         2.603166	       1.377536
	 R(3,6)           =         2.963734	       1.568341
	 R(6,7)           =         2.798993	       1.481163
	 R(6,16)          =         2.319466	       1.227409
	 R(7,8)           =         2.668414	       1.412064
	 R(7,12)          =         2.687267	       1.422040
	 R(8,9)           =         2.647220	       1.400849
	 R(8,18)          =         2.060714	       1.090483
	 R(9,10)          =         2.686698	       1.421739
	 R(9,17)          =         2.057771	       1.088926
	 R(10,11)         =         2.669731	       1.412761
	 R(10,13)         =         3.358626	       1.777308
	 R(11,12)         =         2.656673	       1.405851
	 R(11,20)         =         2.061917	       1.091119
	 R(13,14)         =         3.426346	       1.813144
	 R(14,21)         =         2.068074	       1.094378
	 R(14,22)         =         2.068218	       1.094454
	 R(14,23)         =         2.068130	       1.094407
	 B(1,2,3)         =         2.023932	     115.962739
	 B(1,2,15)        =         2.101399	     120.401292
	 B(1,12,7)        =         2.093957	     119.974877
	 B(1,12,11)       =         2.099271	     120.279348
	 B(2,1,12)        =         2.234907	     128.050733
	 B(2,1,19)        =         1.958152	     112.193854
	 B(2,3,4)         =         1.874469	     107.399189
	 B(2,3,5)         =         1.878160	     107.610641
	 B(2,3,6)         =         2.046931	     117.280531
	 B(3,2,15)        =         2.157755	     123.630260
	 B(3,6,7)         =         2.051721	     117.554964
	 B(3,6,16)        =         2.103798	     120.538766
	 B(4,3,5)         =         1.888844	     108.222767
	 B(4,3,6)         =         1.883139	     107.895902
	 B(5,3,6)         =         1.887421	     108.141258
	 B(6,7,8)         =         2.097036	     120.151296
	 B(6,7,12)        =         2.110233	     120.907449
	 B(7,6,16)        =         2.127435	     121.893039
	 B(7,8,9)         =         2.113119	     121.072812
	 B(7,8,18)        =         2.063069	     118.205145
	 B(7,12,11)       =         2.089892	     119.742010
	 B(8,7,12)        =         2.075812	     118.935273
	 B(8,9,10)        =         2.100339	     120.340536
	 B(8,9,17)        =         2.060180	     118.039595
	 B(9,8,18)        =         2.106951	     120.719421
	 B(9,10,11)       =         2.067514	     118.459802
	 B(9,10,13)       =         2.200191	     126.061646
	 B(10,9,17)       =         2.122645	     121.618598
	 B(10,11,12)      =         2.119135	     121.417506
	 B(10,11,20)      =         2.083847	     119.395666
	 B(10,13,14)      =         1.857388	     106.420521
	 B(11,10,13)      =         2.015140	     115.458999
	 B(12,1,19)       =         2.090037	     119.750272
	 B(12,11,20)      =         2.080182	     119.185667
	 B(13,14,21)      =         1.898363	     108.768183
	 B(13,14,22)      =         1.909615	     109.412893
	 B(13,14,23)      =         1.912015	     109.550382
	 B(21,14,22)      =         1.912093	     109.554842
	 B(21,14,23)      =         1.906160	     109.214895
	 B(22,14,23)      =         1.925362	     110.315098
	 D(1,2,3,4)       =         2.028724	     116.237341
	 D(1,2,3,5)       =        -2.224400	    -127.448707
	 D(1,2,3,6)       =        -0.093528	      -5.358770
	 D(1,12,7,6)      =        -0.023347	      -1.337676
	 D(1,12,7,8)      =         3.102738	     177.773776
	 D(1,12,11,10)    =        -3.129362	    -179.299211
	 D(1,12,11,20)    =         0.019116	       1.095250
	 D(2,1,12,7)      =         0.031280	       1.792228
	 D(2,1,12,11)     =        -3.122664	    -178.915471
	 D(2,3,6,7)       =         0.100060	       5.733019
	 D(2,3,6,16)      =        -3.064193	    -175.565304
	 D(3,2,1,12)      =         0.030367	       1.739889
	 D(3,2,1,19)      =        -3.125845	    -179.097707
	 D(3,6,7,8)       =         3.114430	     178.443668
	 D(3,6,7,12)      =        -0.042859	      -2.455634
	 D(4,3,2,15)      =        -1.097715	     -62.894429
	 D(4,3,6,7)       =        -2.017686	    -115.604891
	 D(4,3,6,16)      =         1.101247	      63.096786
	 D(5,3,2,15)      =         0.932347	      53.419523
	 D(5,3,6,7)       =         2.226143	     127.548572
	 D(5,3,6,16)      =        -0.938110	     -53.749750
	 D(6,3,2,15)      =         3.063218	     175.509461
	 D(6,7,8,9)       =        -3.126443	    -179.131986
	 D(6,7,8,18)      =         0.004941	       0.283071
	 D(6,7,12,11)     =         3.130531	     179.366199
	 D(7,8,9,10)      =        -0.007611	      -0.436101
	 D(7,8,9,17)      =         3.126939	     179.160425
	 D(7,12,1,19)     =        -3.094722	    -177.314492
	 D(7,12,11,10)    =        -0.000092	      -0.005261
	 D(7,12,11,20)    =        -3.134800	    -179.610800
	 D(8,7,6,16)      =        -0.004176	      -0.239274
	 D(8,7,12,11)     =        -0.026570	      -1.522349
	 D(8,9,10,11)     =        -0.019092	      -1.093896
	 D(8,9,10,13)     =        -3.131238	    -179.406748
	 D(9,8,7,12)      =         0.030538	       1.749673
	 D(9,10,11,12)    =         0.022930	       1.313810
	 D(9,10,11,20)    =        -3.125561	    -179.081463
	*D(9,10,13,14)    =         0.079813	       4.572972
	 D(10,9,8,18)     =        -3.138739	    -179.836473
	*D(10,13,14,21)   =         3.037289	     174.023852
	 D(10,13,14,22)   =        -1.157765	     -66.335020
	 D(10,13,14,23)   =         0.954944	      54.714233
	 D(11,10,9,17)    =         3.129799	     179.324297
	*D(11,10,13,14)   =        -3.033107	    -173.784256
	 D(11,12,1,19)    =         0.034519	       1.977809
	 D(12,1,2,15)     =        -3.125854	    -179.098267
	 D(12,7,6,16)     =         3.121721	     178.861424
	 D(12,7,8,18)     =        -3.121264	    -178.835270
	 D(12,11,10,13)   =         3.138160	     179.803305
	 D(13,10,9,17)    =         0.017653	       1.011445
	 D(13,10,11,20)   =        -0.010332	      -0.591968
	 D(15,2,1,19)     =         0.001119	       0.064137
	 D(17,9,8,18)     =        -0.004188	      -0.239946

	Current energy   :     -1188.1160885888

	Generating empirical Hessian (Schlegel '84) for each fragment.
	Taking RFO optimization step.
	Going to follow RFO solution 1.
	Using RFO vector 1.
	Norm of target step-size    0.21493
	Projected energy change by RFO approximation:        -0.0136990870

	Back-transformation to cartesian coordinates...
	Successfully converged to displaced geometry.

	Back-transformation to cartesian coordinates to adjust frozen coordinates...
	Successfully converged to displaced geometry.

	--- Internal Coordinate Step in ANG or DEG, aJ/ANG or AJ/DEG ---
	 ---------------------------------------------------------------------------
	   Coordinate                Previous        Force       Change         New 
	   ----------                --------       ------       ------       ------
	    1 R(1,2)          =      1.370345    -0.010749    -0.001275     1.369070
	    2 R(1,12)         =      1.415517    -0.132562    -0.019525     1.395993
	    3 R(1,19)         =      1.010874     0.018660     0.002538     1.013413
	    4 R(2,3)          =      1.564657    -0.096301    -0.021384     1.543273
	    5 R(2,15)         =      1.222606    -0.178694    -0.012002     1.210604
	    6 R(3,4)          =      1.376636    -0.139461    -0.017525     1.359111
	    7 R(3,5)          =      1.377536    -0.167829    -0.021159     1.356377
	    8 R(3,6)          =      1.568341    -0.091499    -0.020679     1.547662
	    9 R(6,7)          =      1.481163    -0.079298    -0.014390     1.466773
	   10 R(6,16)         =      1.227409    -0.232346    -0.015950     1.211459
	   11 R(7,8)          =      1.412064    -0.108137    -0.015524     1.396540
	   12 R(7,12)         =      1.422040    -0.117549    -0.017967     1.404073
	   13 R(8,9)          =      1.400849    -0.137227    -0.018837     1.382012
	   14 R(8,18)         =      1.090483    -0.032096    -0.005703     1.084780
	   15 R(9,10)         =      1.421739    -0.141656    -0.020791     1.400948
	   16 R(9,17)         =      1.088926    -0.023752    -0.004200     1.084726
	   17 R(10,11)        =      1.412761    -0.108530    -0.015392     1.397369
	   18 R(10,13)        =      1.777308    -0.098131    -0.021454     1.755855
	   19 R(11,12)        =      1.405851    -0.141342    -0.019679     1.386172
	   20 R(11,20)        =      1.091119    -0.020085    -0.003576     1.087543
	   21 R(13,14)        =      1.813144    -0.006517    -0.001580     1.811565
	   22 R(14,21)        =      1.094378    -0.020445    -0.003678     1.090699
	   23 R(14,22)        =      1.094454    -0.008543    -0.001537     1.092916
	   24 R(14,23)        =      1.094407    -0.006782    -0.001220     1.093187
	   25 B(1,2,3)        =    115.962739    -0.000066    -0.071107   115.891632
	   26 B(1,2,15)       =    120.401292     0.000814     2.270306   122.671598
	   27 B(1,12,7)       =    119.974877     0.000221     0.442013   120.416890
	   28 B(1,12,11)      =    120.279348    -0.000411    -1.079399   119.199949
	   29 B(2,1,12)       =    128.050733    -0.000185    -0.659255   127.391477
	   30 B(2,1,19)       =    112.193854     0.000378     1.564546   113.758400
	   31 B(2,3,4)        =    107.399189    -0.000034    -0.248964   107.150224
	   32 B(2,3,5)        =    107.610641    -0.000029    -0.036674   107.573967
	   33 B(2,3,6)        =    117.280531     0.000080     0.517217   117.797748
	   34 B(3,2,15)       =    123.630260    -0.000748    -2.195875   121.434385
	   35 B(3,6,7)        =    117.554964    -0.000148    -0.366813   117.188152
	   36 B(3,6,16)       =    120.538766    -0.000740    -2.142668   118.396098
	   37 B(4,3,5)        =    108.222767    -0.000015    -0.232462   107.990304
	   38 B(4,3,6)        =    107.895902    -0.000027    -0.220790   107.675113
	   39 B(5,3,6)        =    108.141258     0.000020     0.162681   108.303939
	   40 B(6,7,8)        =    120.151296    -0.000042    -0.035818   120.115477
	   41 B(6,7,12)       =    120.907449     0.000101     0.168303   121.075751
	   42 B(7,6,16)       =    121.893039     0.000889     2.518205   124.411245
	   43 B(7,8,9)        =    121.072812     0.000059     0.165145   121.237957
	   44 B(7,8,18)       =    118.205145    -0.000016    -0.017294   118.187851
	   45 B(7,12,11)      =    119.742010     0.000190     0.636790   120.378800
	   46 B(8,7,12)       =    118.935273    -0.000058    -0.127239   118.808034
	   47 B(8,9,10)       =    120.340536    -0.000236    -0.741324   119.599212
	   48 B(8,9,17)       =    118.039595     0.000315     1.223216   119.262811
	   49 B(9,8,18)       =    120.719421    -0.000043    -0.145321   120.574100
	   50 B(9,10,11)      =    118.459802     0.000452     1.343892   119.803694
	   51 B(9,10,13)      =    126.061646    -0.000585    -1.696381   124.365266
	   52 B(10,9,17)      =    121.618598    -0.000080    -0.482267   121.136331
	   53 B(10,11,12)     =    121.417506    -0.000405    -1.256588   120.160918
	   54 B(10,11,20)     =    119.395666     0.000204     0.641712   120.037378
	   55 B(10,13,14)     =    106.420521    -0.001653    -4.725137   101.695384
	   56 B(11,10,13)     =    115.458999     0.000133     0.351873   115.810872
	   57 B(12,1,19)      =    119.750272    -0.000193    -0.906216   118.844055
	   58 B(12,11,20)     =    119.185667     0.000202     0.615984   119.801651
	   59 B(13,14,21)     =    108.768183    -0.000693    -3.187255   105.580928
	   60 B(13,14,22)     =    109.412893     0.000486     2.177565   111.590458
	   61 B(13,14,23)     =    109.550382     0.000366     1.542673   111.093055
	   62 B(21,14,22)     =    109.554842    -0.000036    -0.332126   109.222716
	   63 B(21,14,23)     =    109.214895    -0.000004    -0.324318   108.890577
	   64 B(22,14,23)     =    110.315098    -0.000129    -0.004179   110.310919
	   65 D(1,2,3,4)      =    116.237341     0.000003     0.093582   116.330923
	   66 D(1,2,3,5)      =   -127.448707    -0.000008    -0.320986  -127.769694
	   67 D(1,2,3,6)      =     -5.358770     0.000005     0.230536    -5.128234
	   68 D(1,12,7,6)     =     -1.337676     0.000004     0.351270    -0.986406
	   69 D(1,12,7,8)     =    177.773776     0.000009     0.927750   178.701526
	   70 D(1,12,11,10)   =   -179.299211    -0.000003    -0.285384  -179.584595
	   71 D(1,12,11,20)   =      1.095250    -0.000007    -0.595982     0.499268
	   72 D(2,1,12,7)     =      1.792228    -0.000004    -0.400375     1.391853
	   73 D(2,1,12,11)    =   -178.915471    -0.000003    -0.449512  -179.364984
	   74 D(2,3,6,7)      =      5.733019    -0.000005    -0.258499     5.474519
	   75 D(2,3,6,16)     =   -175.565304     0.000001     0.301975  -175.263329
	   76 D(3,2,1,12)     =      1.739889    -0.000001     0.071179     1.811068
	   77 D(3,2,1,19)     =   -179.097707    -0.000001    -0.006404  -179.104110
	   78 D(3,6,7,8)      =    178.443668    -0.000005    -0.604392   177.839276
	   79 D(3,6,7,12)     =     -2.455634     0.000001    -0.021206    -2.476841
	   80 D(4,3,2,15)     =    -62.894429    -0.000001    -0.227132   -63.121561
	   81 D(4,3,6,7)      =   -115.604891    -0.000003    -0.109252  -115.714143
	   82 D(4,3,6,16)     =     63.096786     0.000003     0.451222    63.548008
	   83 D(5,3,2,15)     =     53.419523    -0.000012    -0.641701    52.777822
	   84 D(5,3,6,7)      =    127.548572     0.000002     0.195816   127.744389
	   85 D(5,3,6,16)     =    -53.749750     0.000008     0.756290   -52.993460
	   86 D(6,3,2,15)     =    175.509461     0.000001    -0.090179   175.419282
	   87 D(6,7,8,9)      =   -179.131986    -0.000005    -0.539331  -179.671317
	   88 D(6,7,8,18)     =      0.283071    -0.000001    -0.063747     0.219324
	   89 D(6,7,12,11)    =    179.366199     0.000004     0.413199   179.779398
	   90 D(7,8,9,10)     =     -0.436101     0.000005     0.570431     0.134329
	   91 D(7,8,9,17)     =    179.160425     0.000004     0.512534   179.672959
	   92 D(7,12,1,19)    =   -177.314492    -0.000005    -0.337396  -177.651887
	   93 D(7,12,11,10)   =     -0.005261    -0.000003    -0.335876    -0.341137
	   94 D(7,12,11,20)   =   -179.610800    -0.000006    -0.646474  -180.257274
	   95 D(8,7,6,16)     =     -0.239274    -0.000006    -1.134696    -1.373970
	   96 D(8,7,12,11)    =     -1.522349     0.000009     0.989679    -0.532670
	   97 D(8,9,10,11)    =     -1.093896    -0.000001     0.077892    -1.016004
	   98 D(8,9,10,13)    =   -179.406748     0.000001     0.095068  -179.311680
	   99 D(9,8,7,12)     =      1.749673    -0.000010    -1.111999     0.637674
	  100 D(9,10,11,12)   =      1.313810    -0.000001    -0.193321     1.120489
	  101 D(9,10,11,20)   =   -179.081463     0.000003     0.117891  -178.963573
	  102 *D(9,10,13,14)  =      4.572972     0.000000     0.000000     4.572972
	  103 D(10,9,8,18)    =   -179.836473     0.000001     0.082756  -179.753717
	  104 *D(10,13,14,21) =    174.023852    -0.000000    -0.000000   174.023852
	  105 D(10,13,14,22)  =    -66.335020    -0.000039    -1.090052   -67.425072
	  106 D(10,13,14,23)  =     54.714233     0.000047     1.417378    56.131612
	  107 D(11,10,9,17)   =    179.324297     0.000000     0.129936   179.454232
	  108 *D(11,10,13,14) =   -173.784256    -0.000000    -0.000000  -173.784256
	  109 D(11,12,1,19)   =      1.977809    -0.000004    -0.386533     1.591276
	  110 D(12,1,2,15)    =   -179.098267    -0.000001     0.354365  -178.743902
	  111 D(12,7,6,16)    =    178.861424    -0.000000    -0.551510   178.309913
	  112 D(12,7,8,18)    =   -178.835270    -0.000006    -0.636415  -179.471685
	  113 D(12,11,10,13)  =    179.803305    -0.000005    -0.245529   179.557776
	  114 D(13,10,9,17)   =      1.011445     0.000001     0.147111     1.158556
	  115 D(13,10,11,20)  =     -0.591968    -0.000002     0.065683    -0.526286
	  116 D(15,2,1,19)    =      0.064137    -0.000001     0.276783     0.340920
	  117 D(17,9,8,18)    =     -0.239946    -0.000000     0.024859    -0.215087
	 ---------------------------------------------------------------------------
	Successfully symmetrized geometry.

  ==> Convergence Check <==

  Measures of convergence in internal coordinates in au.
  Criteria marked as inactive (o), active & met (*), and active & unmet ( ).
  --------------------------------------------------------------------------------------------- ~
   Step     Total Energy     Delta E     MAX Force     RMS Force      MAX Disp      RMS Disp    ~
  --------------------------------------------------------------------------------------------- ~
    Convergence Criteria             o    2.50e-03 *    1.70e-03 *    1.00e-02 *    6.70e-03 *  ~
  --------------------------------------------------------------------------------------------- ~
      1   -1188.11608859   -1.19e+03 o    2.82e-02      6.87e-03      8.25e-02      1.98e-02    ~
  ---------------------------------------------------------------------------------------------

	Writing optimization data to binary file.
	Structure for next step:
	Cartesian Geometry (in Angstrom)
	    N    -0.9571937817  -1.5503854039   0.1026475412
	    C    -2.2516735569  -1.2368195125   0.4194297334
	    C    -2.5651172347   0.2675500523   0.5619659094
	    F    -3.4596015031   0.5844999776  -0.4109792406
	    F    -3.1703786323   0.4478376716   1.7623468561
	    C    -1.3851860995   1.2636572972   0.4580877861
	    C    -0.0716063580   0.7124983273   0.1085797125
	    C     1.0261100494   1.5618969073  -0.0459021305
	    C     2.2726082507   1.0683313251  -0.3814487881
	    C     2.4426533326  -0.3088607064  -0.5740162387
	    C     1.3576467588  -1.1730094466  -0.4047628365
	    C     0.1108107542  -0.6681607610  -0.0700993336
	    S     3.9701742281  -1.0710212883  -0.9848897527
	    C     5.1107756600   0.3349715573  -0.9218134846
	    O    -3.1094396912  -2.0775720371   0.5708715607
	    O    -1.6042447042   2.4387916411   0.6548237740
	    H     3.1019219885   1.7576563177  -0.4984984025
	    H     0.8757087820   2.6258302063   0.1030036254
	    H    -0.7907058690  -2.5450513843   0.0030158806
	    H     1.4892876448  -2.2444518716  -0.5367933080
	    H     6.1059397744  -0.0885507841  -1.0628889414
	    H     4.9086936919   1.0529150508  -1.7206790088
	    H     5.0715913758   0.8299735928   0.0520938326
			--------------------------
			 OPTKING Finished Execution 
			--------------------------

    Structure for next step:
    Molecular point group: c1
    Full point group: C1

    Geometry (in Angstrom), charge = 0, multiplicity = 1:

    N           -0.980509832471    -1.520351894198     0.097141797280
    C           -2.274989612723    -1.206786001482     0.413923990653
    C           -2.588433291828     0.297583569167     0.556460167283
    F           -3.482917563723     0.614533495757    -0.416484986539
    F           -3.193694691747     0.477871189215     1.756841118647
    C           -1.408502151993     1.293690818049     0.452582043550
    C           -0.094922405311     0.742531845961     0.103073968619
    C            1.002794006419     1.591930429278    -0.051407875065
    C            2.249292212638     1.098364845121    -0.386954533975
    C            2.419337295204    -0.278827191735    -0.579521985309
    C            1.334330717074    -1.142975935339    -0.410268582431
    C            0.087494707649    -0.638127247798    -0.075605078193
    S            3.946858196717    -1.040987776671    -0.990395500962
    C            5.087459633022     0.365005074417    -0.927319232599
    O           -3.132755750426    -2.047538529431     0.565365818628
    O           -1.627560757547     2.468825166534     0.649318032274
    H            3.078605953685     1.787689840472    -0.504004148812
    H            0.852392738421     2.655863732490     0.097497881466
    H           -0.814021919151    -2.515017878439    -0.002489863769
    H            1.465971603600    -2.214418364568    -0.542299054495
    H            6.082623751400    -0.058517268642    -1.068394689972
    H            4.885377664144     1.082948570736    -1.726184759871
    H            5.048275348720     0.860007111927     0.046588088475

gradient() will perform analytic gradient computation.

*** tstart() called on cpu-spot-dy-c5n2xlarge-1
*** at Tue Jun 22 06:24:00 2021

   => Loading Basis Set <=

    Name: 6-31+G*
    Role: ORBITAL
    Keyword: BASIS
    atoms 1             entry N          line   138 file /fsx/users/francis/anaconda3/envs/poltype-dev/share/psi4/basis/6-31pgs.gbs 
    atoms 2-3, 6-12, 14 entry C          line   119 file /fsx/users/francis/anaconda3/envs/poltype-dev/share/psi4/basis/6-31pgs.gbs 
    atoms 4-5           entry F          line   176 file /fsx/users/francis/anaconda3/envs/poltype-dev/share/psi4/basis/6-31pgs.gbs 
    atoms 13            entry S          line   344 file /fsx/users/francis/anaconda3/envs/poltype-dev/share/psi4/basis/6-31pgs.gbs 
    atoms 15-16         entry O          line   157 file /fsx/users/francis/anaconda3/envs/poltype-dev/share/psi4/basis/6-31pgs.gbs 
    atoms 17-23         entry H          line    46 file /fsx/users/francis/anaconda3/envs/poltype-dev/share/psi4/basis/6-31pgs.gbs 


         ---------------------------------------------------------
                                   SCF
               by Justin Turney, Rob Parrish, Andy Simmonett
                          and Daniel G. A. Smith
                              RKS Reference
                        8 Threads,  15258 MiB Core
         ---------------------------------------------------------

  ==> Geometry <==

    Molecular point group: c1
    Full point group: C1

    Geometry (in Angstrom), charge = 0, multiplicity = 1:

       Center              X                  Y                   Z               Mass       
    ------------   -----------------  -----------------  -----------------  -----------------
         N           -0.980509832471    -1.520351894198     0.097141797280    14.003074004430
         C           -2.274989612723    -1.206786001482     0.413923990653    12.000000000000
         C           -2.588433291828     0.297583569167     0.556460167283    12.000000000000
         F           -3.482917563723     0.614533495757    -0.416484986539    18.998403162730
         F           -3.193694691747     0.477871189215     1.756841118647    18.998403162730
         C           -1.408502151993     1.293690818049     0.452582043550    12.000000000000
         C           -0.094922405311     0.742531845961     0.103073968619    12.000000000000
         C            1.002794006419     1.591930429278    -0.051407875065    12.000000000000
         C            2.249292212638     1.098364845121    -0.386954533975    12.000000000000
         C            2.419337295204    -0.278827191735    -0.579521985309    12.000000000000
         C            1.334330717074    -1.142975935339    -0.410268582431    12.000000000000
         C            0.087494707649    -0.638127247798    -0.075605078193    12.000000000000
         S            3.946858196717    -1.040987776671    -0.990395500962    31.972071174400
         C            5.087459633022     0.365005074417    -0.927319232599    12.000000000000
         O           -3.132755750426    -2.047538529431     0.565365818628    15.994914619570
         O           -1.627560757547     2.468825166534     0.649318032274    15.994914619570
         H            3.078605953685     1.787689840472    -0.504004148812     1.007825032230
         H            0.852392738421     2.655863732490     0.097497881466     1.007825032230
         H           -0.814021919151    -2.515017878439    -0.002489863769     1.007825032230
         H            1.465971603600    -2.214418364568    -0.542299054495     1.007825032230
         H            6.082623751400    -0.058517268642    -1.068394689972     1.007825032230
         H            4.885377664144     1.082948570736    -1.726184759871     1.007825032230
         H            5.048275348720     0.860007111927     0.046588088475     1.007825032230

  Running in c1 symmetry.

  Rotational constants: A =      0.03958  B =      0.00836  C =      0.00719 [cm^-1]
  Rotational constants: A =   1186.59495  B =    250.76393  C =    215.49607 [MHz]
  Nuclear repulsion = 1190.484559525184750

  Charge       = 0
  Multiplicity = 1
  Electrons    = 124
  Nalpha       = 62
  Nbeta        = 62

  ==> Algorithm <==

  SCF Algorithm Type is DF.
  DIIS enabled.
  MOM disabled.
  Fractional occupation disabled.
  Guess Type is READ.
  Energy threshold   = 1.00e-08
  Density threshold  = 1.00e-08
  Integral threshold = 0.00e+00

  ==> Primary Basis <==

  Basis Set: 6-31+G*
    Blend: 6-31+G*
    Number of shells: 144
    Number of basis function: 322
    Number of Cartesian functions: 322
    Spherical Harmonics?: false
    Max angular momentum: 2

  ==> DFT Potential <==

   => Composite Functional: WB97X-D <= 

    wB97X-D Hyb-GGA Exchange-Correlation Functional

    J.-D. Chai and M. Head-Gordon, Phys. Chem. Chem. Phys. 10, 6615 (2008)

    Deriv               =              1
    GGA                 =           TRUE
    Meta                =          FALSE

    Exchange Hybrid     =           TRUE
    MP2 Hybrid          =          FALSE

   => Exchange-Correlation Functionals <=

    1.0000   wB97D range-separated functional

   => Exact (HF) Exchange <=

    0.7780            HF,LR [omega = 0.2000]
    0.2220               HF 

   => Molecular Quadrature <=

    Radial Scheme          =       TREUTLER
    Pruning Scheme         =           FLAT
    Nuclear Scheme         =       TREUTLER

    BS radius alpha        =              1
    Pruning alpha          =              1
    Radial Points          =             75
    Spherical Points       =            302
    Total Points           =         520850
    Total Blocks           =           3865
    Max Points             =            256
    Max Functions          =            288

   => WB97X-D: Empirical Dispersion <=

    Chai and Head-Gordon Dispersion Correction
    Chai, J.-D.; Head-Gordon, M. (2010), J. Chem. Phys., 132: 6615-6620

        s6 =       1.000000

   => Loading Basis Set <=

    Name: (6-31+G* AUX)
    Role: JKFIT
    Keyword: DF_BASIS_SCF
    atoms 1             entry N          line   252 file /fsx/users/francis/anaconda3/envs/poltype-dev/share/psi4/basis/heavy-aug-cc-pvdz-jkfit.gbs 
    atoms 2-3, 6-12, 14 entry C          line   194 file /fsx/users/francis/anaconda3/envs/poltype-dev/share/psi4/basis/heavy-aug-cc-pvdz-jkfit.gbs 
    atoms 4-5           entry F          line   368 file /fsx/users/francis/anaconda3/envs/poltype-dev/share/psi4/basis/heavy-aug-cc-pvdz-jkfit.gbs 
    atoms 13            entry S          line   730 file /fsx/users/francis/anaconda3/envs/poltype-dev/share/psi4/basis/heavy-aug-cc-pvdz-jkfit.gbs 
    atoms 15-16         entry O          line   310 file /fsx/users/francis/anaconda3/envs/poltype-dev/share/psi4/basis/heavy-aug-cc-pvdz-jkfit.gbs 
    atoms 17-23         entry H          line   116 file /fsx/users/francis/anaconda3/envs/poltype-dev/share/psi4/basis/heavy-aug-cc-pvdz-jkfit.gbs 

   => Loading Basis Set <=

    Name: 6-31+G*
    Role: ORBITAL
    Keyword: BASIS
    atoms 1             entry N          line   138 file /fsx/users/francis/anaconda3/envs/poltype-dev/share/psi4/basis/6-31pgs.gbs 
    atoms 2-3, 6-12, 14 entry C          line   119 file /fsx/users/francis/anaconda3/envs/poltype-dev/share/psi4/basis/6-31pgs.gbs 
    atoms 4-5           entry F          line   176 file /fsx/users/francis/anaconda3/envs/poltype-dev/share/psi4/basis/6-31pgs.gbs 
    atoms 13            entry S          line   344 file /fsx/users/francis/anaconda3/envs/poltype-dev/share/psi4/basis/6-31pgs.gbs 
    atoms 15-16         entry O          line   157 file /fsx/users/francis/anaconda3/envs/poltype-dev/share/psi4/basis/6-31pgs.gbs 
    atoms 17-23         entry H          line    46 file /fsx/users/francis/anaconda3/envs/poltype-dev/share/psi4/basis/6-31pgs.gbs 

  Reading orbitals from file 180, no projection.

  ==> Pre-Iterations <==

   -------------------------------------------------------
    Irrep   Nso     Nmo     Nalpha   Nbeta   Ndocc  Nsocc
   -------------------------------------------------------
     A        322     322       0       0       0       0
   -------------------------------------------------------
    Total     322     322      62      62      62       0
   -------------------------------------------------------

  ==> Integral Setup <==

  ==> DiskDFJK: Density-Fitted J/K Matrices <==

    J tasked:                  Yes
    K tasked:                  Yes
    wK tasked:                 Yes
    Omega:               2.000E-01
    OpenMP threads:              8
    Integrals threads:           8
    Memory [MiB]:             8429
    Algorithm:                Core
    Integral Cache:           NONE
    Schwarz Cutoff:          1E-12
    Fitting Condition:       1E-10

   => Auxiliary Basis Set <=

  Basis Set: (6-31+G* AUX)
    Blend: HEAVY-AUG-CC-PVDZ-JKFIT
    Number of shells: 523
    Number of basis function: 1840
    Number of Cartesian functions: 1840
    Spherical Harmonics?: false
    Max angular momentum: 3

  Cached 100.0% of DFT collocation blocks in 2.944 [GiB].

  Minimum eigenvalue in the overlap matrix is 4.7503690688E-07.
  Using Symmetric Orthogonalization.

  SCF Guess: Orbitals guess was supplied from a previous computation.

  ==> Iterations <==

                           Total Energy        Delta E     RMS |[F,P]|

   @DF-RKS iter   0: -1188.28569765368911   -1.18829e+03   1.22840e-03 
   @DF-RKS iter   1: -1188.11887683246960    1.66821e-01   2.31521e-04 DIIS
   @DF-RKS iter   2: -1188.11902433302862   -1.47501e-04   2.68248e-04 DIIS
   @DF-RKS iter   3: -1188.12224638481098   -3.22205e-03   5.53007e-05 DIIS
   @DF-RKS iter   4: -1188.12235959414102   -1.13209e-04   1.90270e-05 DIIS
   @DF-RKS iter   5: -1188.12237906827750   -1.94741e-05   4.61961e-06 DIIS
   @DF-RKS iter   6: -1188.12238061020275   -1.54193e-06   1.36744e-06 DIIS
   @DF-RKS iter   7: -1188.12238077911320   -1.68910e-07   6.65143e-07 DIIS
   @DF-RKS iter   8: -1188.12238082556337   -4.64502e-08   2.28573e-07 DIIS
   @DF-RKS iter   9: -1188.12238083745910   -1.18957e-08   1.13870e-07 DIIS
   @DF-RKS iter  10: -1188.12238083956458   -2.10548e-09   6.16201e-08 DIIS
   @DF-RKS iter  11: -1188.12238084023761   -6.73026e-10   2.49245e-08 DIIS
   @DF-RKS iter  12: -1188.12238084032811   -9.04947e-11   1.16724e-08 DIIS
   @DF-RKS iter  13: -1188.12238084034880   -2.06910e-11   4.95842e-09 DIIS
  Energy and wave function converged.


  ==> Post-Iterations <==

    Orbital Energies [Eh]
    ---------------------

    Doubly Occupied:                                                      

       1A    -89.085301     2A    -24.871603     3A    -24.869408  
       4A    -19.301251     5A    -19.291561     6A    -14.540227  
       7A    -10.499156     8A    -10.452265     9A    -10.427178  
      10A    -10.404684    11A    -10.386020    12A    -10.356279  
      13A    -10.350004    14A    -10.346765    15A    -10.346148  
      16A    -10.340446    17A     -8.103041    18A     -6.053643  
      19A     -6.049322    20A     -6.043234    21A     -1.389189  
      22A     -1.328064    23A     -1.192336    24A     -1.181126  
      25A     -1.098904    26A     -1.007610    27A     -0.946155  
      28A     -0.908032    29A     -0.888827    30A     -0.869205  
      31A     -0.800547    32A     -0.765683    33A     -0.753722  
      34A     -0.745762    35A     -0.697010    36A     -0.683194  
      37A     -0.668867    38A     -0.646243    39A     -0.629552  
      40A     -0.592215    41A     -0.588169    42A     -0.568244  
      43A     -0.562617    44A     -0.558441    45A     -0.555654  
      46A     -0.553640    47A     -0.549988    48A     -0.534656  
      49A     -0.518063    50A     -0.515426    51A     -0.507196  
      52A     -0.498354    53A     -0.489560    54A     -0.486929  
      55A     -0.475050    56A     -0.442262    57A     -0.436666  
      58A     -0.398426    59A     -0.394302    60A     -0.363939  
      61A     -0.340140    62A     -0.319590  

    Virtual:                                                              

      63A     -0.041923    64A      0.015744    65A      0.039510  
      66A      0.045702    67A      0.058223    68A      0.066425  
      69A      0.068862    70A      0.073047    71A      0.079898  
      72A      0.088752    73A      0.094311    74A      0.096961  
      75A      0.105265    76A      0.112069    77A      0.114588  
      78A      0.117146    79A      0.118308    80A      0.136712  
      81A      0.139563    82A      0.141289    83A      0.146123  
      84A      0.151690    85A      0.162314    86A      0.164551  
      87A      0.172994    88A      0.177665    89A      0.178841  
      90A      0.180321    91A      0.182329    92A      0.192516  
      93A      0.197654    94A      0.202349    95A      0.207585  
      96A      0.210533    97A      0.218447    98A      0.220781  
      99A      0.223402   100A      0.231674   101A      0.234502  
     102A      0.239790   103A      0.242415   104A      0.245161  
     105A      0.245845   106A      0.252721   107A      0.257569  
     108A      0.264997   109A      0.266245   110A      0.278672  
     111A      0.281791   112A      0.287777   113A      0.291095  
     114A      0.295062   115A      0.299860   116A      0.305927  
     117A      0.309664   118A      0.317830   119A      0.323786  
     120A      0.327928   121A      0.333838   122A      0.336170  
     123A      0.341177   124A      0.345209   125A      0.360085  
     126A      0.362648   127A      0.366318   128A      0.376403  
     129A      0.385661   130A      0.389642   131A      0.393847  
     132A      0.396977   133A      0.400999   134A      0.405308  
     135A      0.411591   136A      0.423640   137A      0.436561  
     138A      0.444444   139A      0.449783   140A      0.456126  
     141A      0.467406   142A      0.476372   143A      0.478411  
     144A      0.488118   145A      0.511047   146A      0.517462  
     147A      0.530198   148A      0.536590   149A      0.543733  
     150A      0.558773   151A      0.577812   152A      0.579706  
     153A      0.593411   154A      0.609135   155A      0.616299  
     156A      0.634063   157A      0.653319   158A      0.672893  
     159A      0.690443   160A      0.712570   161A      0.727163  
     162A      0.745557   163A      0.755366   164A      0.759528  
     165A      0.770672   166A      0.778921   167A      0.789141  
     168A      0.802225   169A      0.808128   170A      0.824067  
     171A      0.829915   172A      0.851719   173A      0.864708  
     174A      0.877423   175A      0.888924   176A      0.897236  
     177A      0.919338   178A      0.930444   179A      0.932234  
     180A      0.939133   181A      0.961690   182A      0.971968  
     183A      0.978836   184A      0.992318   185A      1.021212  
     186A      1.025798   187A      1.046531   188A      1.048630  
     189A      1.058880   190A      1.071830   191A      1.099191  
     192A      1.113867   193A      1.125136   194A      1.156168  
     195A      1.174549   196A      1.175530   197A      1.205697  
     198A      1.208814   199A      1.222355   200A      1.233519  
     201A      1.250181   202A      1.253844   203A      1.272713  
     204A      1.282139   205A      1.285621   206A      1.324803  
     207A      1.330754   208A      1.338080   209A      1.349655  
     210A      1.397997   211A      1.407067   212A      1.414818  
     213A      1.420588   214A      1.427089   215A      1.452285  
     216A      1.453053   217A      1.465057   218A      1.469237  
     219A      1.478858   220A      1.491410   221A      1.513866  
     222A      1.526985   223A      1.528581   224A      1.547556  
     225A      1.585620   226A      1.604031   227A      1.629715  
     228A      1.663494   229A      1.675135   230A      1.688828  
     231A      1.717505   232A      1.750755   233A      1.755970  
     234A      1.759890   235A      1.765151   236A      1.771901  
     237A      1.778654   238A      1.791150   239A      1.793170  
     240A      1.828179   241A      1.842057   242A      1.878766  
     243A      1.894843   244A      1.899454   245A      1.917239  
     246A      1.925885   247A      1.929429   248A      1.965615  
     249A      1.972192   250A      1.978487   251A      1.986086  
     252A      2.023474   253A      2.048202   254A      2.057080  
     255A      2.067618   256A      2.072944   257A      2.090332  
     258A      2.120777   259A      2.122632   260A      2.144695  
     261A      2.176386   262A      2.180094   263A      2.191454  
     264A      2.217986   265A      2.224583   266A      2.235930  
     267A      2.259098   268A      2.265330   269A      2.274052  
     270A      2.296637   271A      2.311982   272A      2.322600  
     273A      2.328734   274A      2.359727   275A      2.364195  
     276A      2.385753   277A      2.398622   278A      2.435242  
     279A      2.480931   280A      2.491990   281A      2.532819  
     282A      2.559923   283A      2.604275   284A      2.656551  
     285A      2.692709   286A      2.704989   287A      2.734362  
     288A      2.764807   289A      2.778270   290A      2.791529  
     291A      2.799335   292A      2.842471   293A      2.857421  
     294A      2.886358   295A      2.933513   296A      2.971746  
     297A      2.989548   298A      3.056793   299A      3.146736  
     300A      3.191767   301A      3.235051   302A      3.263932  
     303A      3.372428   304A      3.427967   305A      3.515539  
     306A      3.524709   307A      4.043519   308A      4.302937  
     309A      4.343573   310A      4.356146   311A      4.368627  
     312A      4.395581   313A      4.430473   314A      4.488061  
     315A      4.495368   316A      4.534336   317A      4.604237  
     318A      4.821725   319A      4.882542   320A      5.152467  
     321A      5.736938   322A      7.233721  

    Final Occupation by Irrep:
              A 
    DOCC [    62 ]

  @DF-RKS Final Energy: -1188.12238084034880

   => Energetics <=

    Nuclear Repulsion Energy =           1190.4845595251847499
    One-Electron Energy =               -3994.9336989466924024
    Two-Electron Energy =                1705.9086180101933223
    DFT Exchange-Correlation Energy =     -89.5681022712173132
    Empirical Dispersion Energy =          -0.0137571578172081
    VV10 Nonlocal Energy =                  0.0000000000000000
    Total Energy =                      -1188.1223808403487965

Computation Completed


Properties will be evaluated at   0.000000,   0.000000,   0.000000 [a0]

Properties computed using the SCF density matrix

  Nuclear Dipole Moment: [e a0]
     X:    25.6937      Y:     0.4470      Z:    -4.7530

  Electronic Dipole Moment: [e a0]
     X:   -22.5195      Y:    -0.7691      Z:     4.1055

  Dipole Moment: [e a0]
     X:     3.1742      Y:    -0.3220      Z:    -0.6475     Total:     3.2555

  Dipole Moment: [D]
     X:     8.0679      Y:    -0.8185      Z:    -1.6457     Total:     8.2746


*** tstop() called on cpu-spot-dy-c5n2xlarge-1 at Tue Jun 22 06:25:03 2021
Module time:
	user time   =     470.11 seconds =       7.84 minutes
	system time =       6.71 seconds =       0.11 minutes
	total time  =         63 seconds =       1.05 minutes
Total time:
	user time   =    1180.79 seconds =      19.68 minutes
	system time =      20.81 seconds =       0.35 minutes
	total time  =        162 seconds =       2.70 minutes

*** tstart() called on cpu-spot-dy-c5n2xlarge-1
*** at Tue Jun 22 06:25:03 2021


         ------------------------------------------------------------
                                   SCF GRAD                          
                          Rob Parrish, Justin Turney,                
                       Andy Simmonett, and Alex Sokolov              
         ------------------------------------------------------------

  ==> Geometry <==

    Molecular point group: c1
    Full point group: C1

    Geometry (in Angstrom), charge = 0, multiplicity = 1:

       Center              X                  Y                   Z               Mass       
    ------------   -----------------  -----------------  -----------------  -----------------
         N           -0.980509832471    -1.520351894198     0.097141797280    14.003074004430
         C           -2.274989612723    -1.206786001482     0.413923990653    12.000000000000
         C           -2.588433291828     0.297583569167     0.556460167283    12.000000000000
         F           -3.482917563723     0.614533495757    -0.416484986539    18.998403162730
         F           -3.193694691747     0.477871189215     1.756841118647    18.998403162730
         C           -1.408502151993     1.293690818049     0.452582043550    12.000000000000
         C           -0.094922405311     0.742531845961     0.103073968619    12.000000000000
         C            1.002794006419     1.591930429278    -0.051407875065    12.000000000000
         C            2.249292212638     1.098364845121    -0.386954533975    12.000000000000
         C            2.419337295204    -0.278827191735    -0.579521985309    12.000000000000
         C            1.334330717074    -1.142975935339    -0.410268582431    12.000000000000
         C            0.087494707649    -0.638127247798    -0.075605078193    12.000000000000
         S            3.946858196717    -1.040987776671    -0.990395500962    31.972071174400
         C            5.087459633022     0.365005074417    -0.927319232599    12.000000000000
         O           -3.132755750426    -2.047538529431     0.565365818628    15.994914619570
         O           -1.627560757547     2.468825166534     0.649318032274    15.994914619570
         H            3.078605953685     1.787689840472    -0.504004148812     1.007825032230
         H            0.852392738421     2.655863732490     0.097497881466     1.007825032230
         H           -0.814021919151    -2.515017878439    -0.002489863769     1.007825032230
         H            1.465971603600    -2.214418364568    -0.542299054495     1.007825032230
         H            6.082623751400    -0.058517268642    -1.068394689972     1.007825032230
         H            4.885377664144     1.082948570736    -1.726184759871     1.007825032230
         H            5.048275348720     0.860007111927     0.046588088475     1.007825032230

  Nuclear repulsion = 1190.484559525184977

  ==> Basis Set <==

  Basis Set: 6-31+G*
    Blend: 6-31+G*
    Number of shells: 144
    Number of basis function: 322
    Number of Cartesian functions: 322
    Spherical Harmonics?: false
    Max angular momentum: 2

  ==> DFJKGrad: Density-Fitted SCF Gradients <==

    Gradient:                    1
    J tasked:                  Yes
    K tasked:                  Yes
    wK tasked:                 Yes
    Omega:               2.000E-01
    OpenMP threads:              8
    Integrals threads:           8
    Memory [MiB]:            11444
    Schwarz Cutoff:          0E+00
    Fitting Condition:       1E-10

   => Auxiliary Basis Set <=

  Basis Set: (6-31+G* AUX)
    Blend: HEAVY-AUG-CC-PVDZ-JKFIT
    Number of shells: 523
    Number of basis function: 1840
    Number of Cartesian functions: 1840
    Spherical Harmonics?: false
    Max angular momentum: 3

  ==> DFT Potential <==

   => Composite Functional: WB97X-D <= 

    wB97X-D Hyb-GGA Exchange-Correlation Functional

    J.-D. Chai and M. Head-Gordon, Phys. Chem. Chem. Phys. 10, 6615 (2008)

    Deriv               =              1
    GGA                 =           TRUE
    Meta                =          FALSE

    Exchange Hybrid     =           TRUE
    MP2 Hybrid          =          FALSE

   => Exchange-Correlation Functionals <=

    1.0000   wB97D range-separated functional

   => Exact (HF) Exchange <=

    0.7780            HF,LR [omega = 0.2000]
    0.2220               HF 

   => Molecular Quadrature <=

    Radial Scheme          =       TREUTLER
    Pruning Scheme         =           FLAT
    Nuclear Scheme         =       TREUTLER

    BS radius alpha        =              1
    Pruning alpha          =              1
    Radial Points          =             75
    Spherical Points       =            302
    Total Points           =         520850
    Total Blocks           =           3865
    Max Points             =            256
    Max Functions          =            288


  -Total Gradient:
     Atom            X                  Y                   Z
    ------   -----------------  -----------------  -----------------
       1        0.001882796005     0.002694662531     0.000256317345
       2        0.000676919341     0.002533235002    -0.000401123162
       3        0.004670264567    -0.000856028934    -0.003228392345
       4       -0.000742903571     0.000199160843     0.000458507737
       5       -0.001575802406     0.000539841450     0.002386304406
       6       -0.002721488713    -0.002312603606     0.000015105925
       7        0.001670232831    -0.001100536995    -0.000491010227
       8        0.000223620718     0.000012023857     0.000232585173
       9       -0.001658612689    -0.003548937952     0.001082211113
      10        0.000575214013     0.003799610101    -0.002573190462
      11        0.000142685567     0.000922201886     0.001508985909
      12        0.003292138063    -0.000070368990    -0.000886193230
      13       -0.002604236558    -0.003776176034     0.000140043668
      14       -0.000465104083     0.002064967342     0.000439506073
      15       -0.001009868657    -0.001930416822     0.000190322780
      16        0.000550122397     0.000535546723    -0.000078810911
      17        0.001766238974     0.000582405624    -0.000070010644
      18        0.000362430386    -0.000588785592    -0.000014513333
      19       -0.000962341054    -0.000434507992     0.000389549500
      20       -0.000176482096    -0.000235772858    -0.000129783791
      21       -0.001304349381    -0.000505027861     0.000528404186
      22       -0.000800031219     0.000364202607     0.000186347104
      23       -0.000942686805     0.000656216870     0.000114462542


*** tstop() called on cpu-spot-dy-c5n2xlarge-1 at Tue Jun 22 06:25:27 2021
Module time:
	user time   =     148.60 seconds =       2.48 minutes
[...]
	 B(3,6,16)        =         2.093632	     119.956283
	 B(4,3,5)         =         1.892892	     108.454716
	 B(4,3,6)         =         1.845236	     105.724219
	 B(5,3,6)         =         1.935876	     110.917503
	 B(6,7,8)         =         2.104226	     120.563295
	 B(6,7,12)        =         2.102573	     120.468585
	 B(7,6,16)        =         2.185859	     125.240488
	 B(7,8,9)         =         2.118980	     121.408590
	 B(7,8,18)        =         2.060408	     118.052663
	 B(7,12,11)       =         2.094796	     120.022945
	 B(8,7,12)        =         2.076037	     118.948134
	 B(8,9,10)        =         2.084765	     119.448227
	 B(8,9,17)        =         2.084494	     119.432730
	 B(9,8,18)        =         2.103777	     120.537523
	 B(9,10,11)       =         2.089924	     119.743813
	 B(9,10,13)       =         2.168210	     124.229286
	 B(10,9,17)       =         2.113888	     121.116856
	 B(10,11,12)      =         2.101638	     120.414973
	 B(10,11,20)      =         2.091089	     119.810582
	 B(10,13,14)      =         1.809855	     103.697038
	 B(11,10,13)      =         2.024700	     116.006745
	 B(12,1,19)       =         2.068714	     118.528559
	 B(12,11,20)      =         2.090457	     119.774367
	 B(13,14,21)      =         1.840184	     105.434788
	 B(13,14,22)      =         1.954034	     111.957918
	 B(13,14,23)      =         1.943708	     111.366237
	 B(21,14,22)      =         1.900080	     108.866577
	 B(21,14,23)      =         1.892724	     108.445116
	 B(22,14,23)      =         1.929586	     110.557151
	 D(1,2,3,4)       =         1.530517	      87.692173
	 D(1,2,3,5)       =        -2.714878	    -155.551044
	 D(1,2,3,6)       =        -0.506460	     -29.018031
	 D(1,12,7,6)      =        -0.014805	      -0.848286
	 D(1,12,7,8)      =         3.098566	     177.534744
	 D(1,12,11,10)    =        -3.117637	    -178.627415
	 D(1,12,11,20)    =         0.022178	       1.270732
	 D(2,1,12,7)      =         0.060311	       3.455594
	 D(2,1,12,11)     =        -3.119091	    -178.710772
	 D(2,3,6,7)       =         0.547047	      31.343488
	 D(2,3,6,16)      =        -2.650281	    -151.849928
	 D(3,2,1,12)      =         0.211206	      12.101187
	 D(3,2,1,19)      =        -3.042726	    -174.335350
	 D(3,6,7,8)       =         2.878953	     164.951865
	 D(3,6,7,12)      =        -0.291320	     -16.691384
	 D(4,3,2,15)      =        -1.551693	     -88.905442
	 D(4,3,6,7)       =        -1.489932	     -85.366803
	 D(4,3,6,16)      =         1.595925	      91.439781
	 D(5,3,2,15)      =         0.486098	      27.851341
	 D(5,3,6,7)       =         2.744829	     157.267113
	 D(5,3,6,16)      =        -0.452499	     -25.926303
	 D(6,3,2,15)      =         2.694515	     154.384354
	 D(6,7,8,9)       =         3.129774	     179.322814
	 D(6,7,8,18)      =        -0.018812	      -1.077829
	 D(6,7,12,11)     =        -3.118280	    -178.664290
	 D(7,8,9,10)      =        -0.009226	      -0.528635
	 D(7,8,9,17)      =         3.123083	     178.939495
	 D(7,12,1,19)     =        -2.965263	    -169.897078
	 D(7,12,11,10)    =        -0.013579	      -0.778043
	 D(7,12,11,20)    =         3.126236	     179.120104
	 D(8,7,6,16)      =        -0.203511	     -11.660294
	 D(8,7,12,11)     =        -0.004909	      -0.281260
	 D(8,9,10,11)     =        -0.009479	      -0.543085
	 D(8,9,10,13)     =        -3.121392	    -178.842607
	 D(9,8,7,12)      =         0.016430	       0.941361
	 D(9,10,11,12)    =         0.020861	       1.195240
	 D(9,10,11,20)    =        -3.118953	    -178.702870
	*D(9,10,13,14)    =         0.079813	       4.572972
	 D(10,9,8,18)     =         3.139531	     179.881878
	*D(10,13,14,21)   =         3.037289	     174.023852
	 D(10,13,14,22)   =        -1.182386	     -67.745754
	 D(10,13,14,23)   =         0.987965	      56.606224
	 D(11,10,9,17)    =         3.141558	     179.997990
	*D(11,10,13,14)   =        -3.033107	    -173.784256
	 D(11,12,1,19)    =         0.138519	       7.936555
	 D(12,1,2,15)     =        -2.990478	    -171.341792
	 D(12,7,6,16)     =         2.909402	     166.696457
	 D(12,7,8,18)     =        -3.132155	    -179.459282
	 D(12,11,10,13)   =         3.135151	     179.630930
	 D(13,10,9,17)    =         0.029644	       1.698468
	 D(13,10,11,20)   =        -0.004663	      -0.267180
	 D(15,2,1,19)     =         0.038775	       2.221671
	 D(17,9,8,18)     =        -0.011344	      -0.649991

	Current energy   :     -1188.1238073756

	Energy change for the previous step:
		Projected    :        -0.0000873553
		Actual       :        -0.0000051563

	Performing BFGS update.
	Previous computed or guess Hessian on step 1.
	Steps to be used in Hessian update: 2 1
	Taking RFO optimization step.
	Going to follow RFO solution 1.
	Using RFO vector 1.
	Norm of target step-size    0.01606
	Projected energy change by RFO approximation:        -0.0000224452

	Back-transformation to cartesian coordinates...
	Successfully converged to displaced geometry.

	Back-transformation to cartesian coordinates to adjust frozen coordinates...
	Successfully converged to displaced geometry.

	--- Internal Coordinate Step in ANG or DEG, aJ/ANG or AJ/DEG ---
	 ---------------------------------------------------------------------------
	   Coordinate                Previous        Force       Change         New 
	   ----------                --------       ------       ------       ------
	    1 R(1,2)          =      1.370696    -0.001080    -0.000113     1.370583
	    2 R(1,12)         =      1.399905    -0.001882    -0.000180     1.399725
	    3 R(1,19)         =      1.012748     0.000465     0.000048     1.012796
	    4 R(2,3)          =      1.546045    -0.003330    -0.000633     1.545412
	    5 R(2,15)         =      1.208489    -0.001595    -0.000081     1.208408
	    6 R(3,4)          =      1.376827    -0.008260    -0.000836     1.375991
	    7 R(3,5)          =      1.335711    -0.005007    -0.000405     1.335307
	    8 R(3,6)          =      1.550278    -0.004607    -0.000839     1.549440
	    9 R(6,7)          =      1.467576     0.000456     0.000078     1.467654
	   10 R(6,16)         =      1.210133    -0.006048    -0.000301     1.209832
	   11 R(7,8)          =      1.397537    -0.002333    -0.000264     1.397273
	   12 R(7,12)         =      1.406933    -0.004339    -0.000460     1.406472
	   13 R(8,9)          =      1.384386    -0.002308    -0.000224     1.384162
	   14 R(8,18)         =      1.086016    -0.001203    -0.000168     1.085848
	   15 R(9,10)         =      1.403978    -0.001098    -0.000107     1.403872
	   16 R(9,17)         =      1.083435    -0.001232    -0.000173     1.083262
	   17 R(10,11)        =      1.399841    -0.002072    -0.000215     1.399627
	   18 R(10,13)        =      1.762043     0.001260     0.000218     1.762261
	   19 R(11,12)        =      1.390417    -0.003139    -0.000335     1.390082
	   20 R(11,20)        =      1.087335    -0.000125    -0.000018     1.087317
	   21 R(13,14)        =      1.808357     0.002466     0.000477     1.808834
	   22 R(14,21)        =      1.092473     0.000336     0.000049     1.092522
	   23 R(14,22)        =      1.092533     0.000748     0.000106     1.092639
	   24 R(14,23)        =      1.092794     0.000614     0.000087     1.092881
	   25 B(1,2,3)        =    114.274795    -0.000011    -0.054495   114.220300
	   26 B(1,2,15)       =    123.342257     0.000009     0.027217   123.369474
	   27 B(1,12,7)       =    120.735216    -0.000013    -0.033964   120.701253
	   28 B(1,12,11)      =    119.206347     0.000002     0.008632   119.214980
	   29 B(2,1,12)       =    126.295038     0.000014     0.017905   126.312943
	   30 B(2,1,19)       =    114.875396    -0.000012    -0.032588   114.842808
	   31 B(2,3,4)        =    105.724373     0.000000    -0.009848   105.714526
	   32 B(2,3,5)        =    109.711516    -0.000004     0.013854   109.725370
	   33 B(2,3,6)        =    115.875511     0.000007     0.002881   115.878392
	   34 B(3,2,15)       =    122.289738     0.000001     0.009173   122.298911
	   35 B(3,6,7)        =    114.717450    -0.000002    -0.023197   114.694253
	   36 B(3,6,16)       =    119.956283    -0.000006    -0.003264   119.953018
	   37 B(4,3,5)        =    108.454716    -0.000004    -0.033344   108.421372
	   38 B(4,3,6)        =    105.724219    -0.000004    -0.019029   105.705190
	   39 B(5,3,6)        =    110.917503     0.000004     0.037875   110.955378
	   40 B(6,7,8)        =    120.563295    -0.000000     0.007288   120.570583
	   41 B(6,7,12)       =    120.468585     0.000006     0.008059   120.476644
	   42 B(7,6,16)       =    125.240488     0.000009     0.033650   125.274138
	   43 B(7,8,9)        =    121.408590     0.000001     0.002736   121.411325
	   44 B(7,8,18)       =    118.052663    -0.000003    -0.010489   118.042174
	   45 B(7,12,11)      =    120.022945     0.000011     0.021559   120.044504
	   46 B(8,7,12)       =    118.948134    -0.000006    -0.014744   118.933389
	   47 B(8,9,10)       =    119.448227     0.000003     0.011929   119.460157
	   48 B(8,9,17)       =    119.432730    -0.000009    -0.031869   119.400861
	   49 B(9,8,18)       =    120.537523     0.000002     0.008058   120.545581
	   50 B(9,10,11)      =    119.743813    -0.000013    -0.025604   119.718209
	   51 B(9,10,13)      =    124.229286     0.000021     0.046209   124.275495
	   52 B(10,9,17)      =    121.116856     0.000006     0.019902   121.136758
	   53 B(10,11,12)     =    120.414973     0.000002     0.005553   120.420526
	   54 B(10,11,20)     =    119.810582    -0.000001    -0.003577   119.807005
	   55 B(10,13,14)     =    103.697038     0.000033     0.078720   103.775757
	   56 B(11,10,13)     =    116.006745    -0.000008    -0.020592   115.986153
	   57 B(12,1,19)      =    118.528559    -0.000002     0.003686   118.532246
	   58 B(12,11,20)     =    119.774367    -0.000001    -0.002110   119.772257
	   59 B(13,14,21)     =    105.434788     0.000012     0.046047   105.480835
	   60 B(13,14,22)     =    111.957918     0.000006     0.023010   111.980928
	   61 B(13,14,23)     =    111.366237     0.000004     0.011271   111.377508
	   62 B(21,14,22)     =    108.866577    -0.000007    -0.023675   108.842901
	   63 B(21,14,23)     =    108.445116    -0.000007    -0.024558   108.420558
	   64 B(22,14,23)     =    110.557151    -0.000008    -0.031152   110.525999
	   65 D(1,2,3,4)      =     87.692173    -0.000000    -0.250585    87.441588
	   66 D(1,2,3,5)      =   -155.551044    -0.000002    -0.288154  -155.839199
	   67 D(1,2,3,6)      =    -29.018031    -0.000000    -0.221781   -29.239812
	   68 D(1,12,7,6)     =     -0.848286    -0.000001    -0.126519    -0.974805
	   69 D(1,12,7,8)     =    177.534744    -0.000000    -0.101859   177.432884
	   70 D(1,12,11,10)   =   -178.627415     0.000001     0.158956  -178.468458
	   71 D(1,12,11,20)   =      1.270732     0.000000     0.093239     1.363972
	   72 D(2,1,12,7)     =      3.455594    -0.000000     0.006295     3.461889
	   73 D(2,1,12,11)    =   -178.710772    -0.000000    -0.105375  -178.816147
	   74 D(2,3,6,7)      =     31.343488    -0.000000     0.121917    31.465405
	   75 D(2,3,6,16)     =   -151.849928     0.000001     0.259596  -151.590332
	   76 D(3,2,1,12)     =     12.101187    -0.000000     0.159375    12.260562
	   77 D(3,2,1,19)     =   -174.335350    -0.000000     0.043129  -174.292221
	   78 D(3,6,7,8)      =    164.951865     0.000001     0.034109   164.985974
	   79 D(3,6,7,12)     =    -16.691384     0.000001     0.058817   -16.632567
	   80 D(4,3,2,15)     =    -88.905442     0.000001     0.063924   -88.841518
	   81 D(4,3,6,7)      =    -85.366803    -0.000000     0.145583   -85.221220
	   82 D(4,3,6,16)     =     91.439781     0.000000     0.283262    91.723043
	   83 D(5,3,2,15)     =     27.851341    -0.000001     0.026354    27.877695
	   84 D(5,3,6,7)      =    157.267113     0.000001     0.176668   157.443780
	   85 D(5,3,6,16)     =    -25.926303     0.000001     0.314347   -25.611957
	   86 D(6,3,2,15)     =    154.384354     0.000001     0.092727   154.477082
	   87 D(6,7,8,9)      =    179.322814    -0.000000    -0.034494   179.288320
	   88 D(6,7,8,18)     =     -1.077829     0.000000     0.018896    -1.058932
	   89 D(6,7,12,11)    =   -178.664290    -0.000000    -0.013633  -178.677922
	   90 D(7,8,9,10)     =     -0.528635     0.000000     0.048282    -0.480353
	   91 D(7,8,9,17)     =    178.939495     0.000000     0.043892   178.983387
	   92 D(7,12,1,19)    =   -169.897078     0.000000     0.128412  -169.768667
	   93 D(7,12,11,10)   =     -0.778043     0.000000     0.046809    -0.731234
	   94 D(7,12,11,20)   =    179.120104    -0.000000    -0.018908   179.101196
	   95 D(8,7,6,16)     =    -11.660294     0.000000    -0.110516   -11.770810
	   96 D(8,7,12,11)    =     -0.281260     0.000000     0.011027    -0.270233
	   97 D(8,9,10,11)    =     -0.543085     0.000000     0.010738    -0.532347
	   98 D(8,9,10,13)    =   -178.842607     0.000000     0.010602  -178.832005
	   99 D(9,8,7,12)     =      0.941361    -0.000001    -0.059190     0.882171
	  100 D(9,10,11,12)   =      1.195240    -0.000001    -0.058191     1.137049
	  101 D(9,10,11,20)   =   -178.702870    -0.000000     0.007547  -178.695323
	  102 *D(9,10,13,14)  =      4.572972     0.000000    -0.000000     4.572972
	  103 D(10,9,8,18)    =    179.881878    -0.000000    -0.006359   179.875519
	  104 *D(10,13,14,21) =    174.023852     0.000000    -0.000000   174.023852
	  105 D(10,13,14,22)  =    -67.745754     0.000000     0.011678   -67.734076
	  106 D(10,13,14,23)  =     56.606224    -0.000000    -0.003463    56.602762
	  107 D(11,10,9,17)   =    179.997990     0.000000     0.015490   180.013481
	  108 *D(11,10,13,14) =   -173.784256     0.000000     0.000000  -173.784256
	  109 D(11,12,1,19)   =      7.936555    -0.000000     0.016742     7.953297
	  110 D(12,1,2,15)    =   -171.341792    -0.000001    -0.159694  -171.501486
	  111 D(12,7,6,16)    =    166.696457     0.000000    -0.085807   166.610650
	  112 D(12,7,8,18)    =   -179.459282    -0.000000    -0.005799  -179.465082
	  113 D(12,11,10,13)  =    179.630930    -0.000000    -0.056933   179.573997
	  114 D(13,10,9,17)   =      1.698468     0.000000     0.015354     1.713822
	  115 D(13,10,11,20)  =     -0.267180     0.000000     0.008805    -0.258375
	  116 D(15,2,1,19)    =      2.221671    -0.000001    -0.275939     1.945732
	  117 D(17,9,8,18)    =     -0.649991    -0.000000    -0.010750    -0.660741
	 ---------------------------------------------------------------------------
	Successfully symmetrized geometry.

  ==> Convergence Check <==

  Measures of convergence in internal coordinates in au.
  Criteria marked as inactive (o), active & met (*), and active & unmet ( ).
  ---------------------------------------------------------------------------------------------
   Step     Total Energy     Delta E     MAX Force     RMS Force      MAX Disp      RMS Disp   
  ---------------------------------------------------------------------------------------------
    Convergence Criteria             o    2.50e-03 *    1.70e-03 *    1.00e-02 *    6.70e-03 *
  ---------------------------------------------------------------------------------------------
      3   -1188.12380738   -5.16e-06 o    1.00e-03 *    1.84e-04 *    5.49e-03 *    1.48e-03 *  ~
  ---------------------------------------------------------------------------------------------


  **** Optimization is complete! (in 3 steps) ****

  ==> Optimization Summary <==

  Measures of convergence in internal coordinates in au.
  --------------------------------------------------------------------------------------------------------------- ~
   Step         Total Energy             Delta E       MAX Force       RMS Force        MAX Disp        RMS Disp  ~
  --------------------------------------------------------------------------------------------------------------- ~
      1   -1188.123792457300  -1188.123792457300      0.00226622      0.00031760      0.02348213      0.00537508  ~
      2   -1188.123802219337     -0.000009762037      0.00046567      0.00012895      0.01671194      0.00371603  ~
      3   -1188.123807375642     -0.000005156305      0.00100257      0.00018439      0.00548638      0.00148456  ~
  --------------------------------------------------------------------------------------------------------------- ~

	Writing optimization data to binary file.
	Final energy is  -1188.1238073756417
	Final (previous) structure:
	Cartesian Geometry (in Angstrom)
	    N    -0.9646808653  -1.5441337787   0.2252115118
	    C    -2.2332528150  -1.2325185979   0.6404578269
	    C    -2.5750617583   0.2733417225   0.5642530147
	    F    -3.0536135058   0.4833477118  -0.7095361016
	    F    -3.5478293117   0.5590807897   1.4338515193
	    C    -1.3805587878   1.2474985674   0.7302169769
	    C    -0.0982059226   0.7365580087   0.2319295686
	    C     0.9804778778   1.6014352460   0.0281186939
	    C     2.2019617803   1.1362675634  -0.4280828468
	    C     2.3673699151  -0.2346173021  -0.6819930513
	    C     1.3020324405  -1.1153692542  -0.4608882689
	    C     0.0746220811  -0.6376486564  -0.0153483205
	    S     3.8719106901  -0.9655683200  -1.2359443199
	    C     5.0446623090   0.4109347916  -1.2290937767
	    O    -3.0445800169  -2.0624384749   0.9772455778
	    O    -1.5619715960   2.3540603610   1.1852248568
	    H     3.0114619182   1.8376049448  -0.5913809405
	    H     0.8335845432   2.6579768132   0.2320148478
	    H    -0.7607551116  -2.5353560697   0.1858274610
	    H     1.4353941948  -2.1800278429  -0.6369975127
	    H     6.0149762335  -0.0326115862  -1.4641571049
	    H     4.8035235656   1.1568609467  -1.9900635166
	    H     5.1070299709   0.8759307305  -0.2421344601
	Saving final (previous) structure.
			--------------------------
			 OPTKING Finished Execution 
			--------------------------

    Final optimized geometry and variables:
    Molecular point group: c1
    Full point group: C1

    Geometry (in Angstrom), charge = 0, multiplicity = 1:

    N           -0.964680869045    -1.544133784749     0.225211512726
    C           -2.233252823763    -1.232518602770     0.640457829412
    C           -2.575061768449     0.273341723544     0.564253016965
    F           -3.053613517798     0.483347713668    -0.709536104433
    F           -3.547829325625     0.559080791867     1.433851524899
    C           -1.380558793237     1.247498572328     0.730216979724
    C           -0.098205922991     0.736558011616     0.231929569536
    C            0.980477881659     1.601435252310     0.028118693973
    C            2.201961788998     1.136267567913    -0.428082848496
    C            2.367369924383    -0.234617303026    -0.681993053945
    C            1.302032445582    -1.115369258590    -0.460888270724
    C            0.074622081427    -0.637648658863    -0.015348320542
    S            3.871910705290    -0.965568323814    -1.235944324797
    C            5.044662328821     0.410934793172    -1.229093781483
    O           -3.044580028862    -2.062438483043     0.977245581671
    O           -1.561971602170     2.354060370244     1.185224861480
    H            3.011461930025     1.837604952009    -0.591380942789
    H            0.833584546428     2.657976823638     0.232014848669
    H           -0.760755114635    -2.535356079686     0.185827461689
    H            1.435394200417    -2.180027851426    -0.636997515157
    H            6.014976257160    -0.032611586295    -1.464157110696
    H            4.803523584524     1.156860951281    -1.990063524388
    H            5.107029991005     0.875930733964    -0.242134461019

	Removing binary optimization data file.
	Cleaning optimization helper files.

    Psi4 stopped on: Tuesday, 22 June 2021 06:42AM
    Psi4 wall time for execution: 0:20:17.94

*** Psi4 exiting successfully. Buy a developer a beer!
