
    -----------------------------------------------------------------------
          Psi4: An Open-Source Ab Initio Electronic Structure Package
                               Psi4 1.3.2 release

                         Git: Rev {HEAD} ecbda83 


    R. M. Parrish, L. A. Burns, D. G. A. Smith, A. C. Simmonett,
    A. E. DePrince III, E. G. Hohenstein, U. Bozkaya, A. Yu. Sokolov,
    R. Di Remigio, R. M. Richard, J. F. Gonthier, A. M. James,
    H. R. McAlexander, A. Kumar, M. Saitow, X. Wang, B. P. Pritchard,
    P. Verma, H. F. Schaefer III, K. Patkowski, R. A. King, E. F. Valeev,
    F. A. Evangelista, J. M. Turney, T. D. Crawford, and C. D. Sherrill,
    J. Chem. Theory Comput. 13(7) pp 3185--3197 (2017).
    (doi: 10.1021/acs.jctc.7b00174)


                         Additional Contributions by
    P. Kraus, H. Kruse, M. H. Lechner, M. C. Schieber, R. A. Shaw,
    A. Alenaizan, R. Galvelis, Z. L. Glick, S. Lehtola, and J. P. Misiewicz

    -----------------------------------------------------------------------


    Psi4 started on: Tuesday, 22 June 2021 05:21AM

    Process ID: 26071
    Host:       cpu-spot-dy-c5n2xlarge-1
    PSIDATADIR: /fsx/users/francis/anaconda3/envs/poltype-dev/share/psi4
    Memory:     500.0 MiB
    Threads:    1
    
  ==> Input File <==

--------------------------------------------------------------------------
molecule { 
0 1
 N   -1.077360   -1.488189    0.122704
 C   -2.380766   -1.153840    0.380760
 C   -2.690743    0.377162    0.473067
 F   -3.648494    0.662383   -0.474249
 F   -3.230234    0.615642    1.717272
 C   -1.493506    1.369198    0.266134
 C   -0.158499    0.787119   -0.003044
 C    0.957845    1.630344   -0.193775
 C    2.229045    1.101023   -0.452551
 C    2.420631   -0.306270   -0.529067
 C    1.302638   -1.146772   -0.327679
 C    0.024514   -0.621099   -0.070102
 S    3.960208   -1.154147   -0.808720
 C    5.283281    0.089351   -0.850881
 O   -3.225912   -2.025537    0.524189
 O   -1.671220    2.582145    0.327463
 H    3.048522    1.799750   -0.610458
 H    0.804912    2.708579   -0.135153
 H   -0.942314   -2.488864    0.073892
 H    1.432952   -2.229471   -0.367995
 H    5.487889    0.360920   -1.891060
 H    5.019811    0.968889   -0.259069
 H    6.184829   -0.360374   -0.422639
}
set optking { 
  frozen_dihedral = ("
    11 10 13 14
    9 10 13 14
    21 14 13 10
  ")
}
set {
  geom_maxiter 400
  g_convergence GAU_LOOSE
  dynamic_level 1
}
memory 16GB
set_num_threads(8)
psi4_io.set_default_path("/scratch/Psi4-ligand")
for _ in range(1):
  try:
    set opt_coordinates both
    optimize('wb97x-d/6-31+G*')
    break
  except OptimizationConvergenceError:
    break
  else:
    try:
      set opt_coordinates cartesian
      optimize('wb97x-d/6-31+G*')
      break
    except OptimizationConvergenceError:
      pass
clean()
--------------------------------------------------------------------------

  Memory set to  14.901 GiB by Python driver.
  Threads set to 8 by Python driver.
gradient() will perform analytic gradient computation.

*** tstart() called on cpu-spot-dy-c5n2xlarge-1
*** at Tue Jun 22 05:21:11 2021

   => Loading Basis Set <=

    Name: 6-31+G*
    Role: ORBITAL
    Keyword: BASIS
    atoms 1             entry N          line   138 file /fsx/users/francis/anaconda3/envs/poltype-dev/share/psi4/basis/6-31pgs.gbs 
    atoms 2-3, 6-12, 14 entry C          line   119 file /fsx/users/francis/anaconda3/envs/poltype-dev/share/psi4/basis/6-31pgs.gbs 
    atoms 4-5           entry F          line   176 file /fsx/users/francis/anaconda3/envs/poltype-dev/share/psi4/basis/6-31pgs.gbs 
    atoms 13            entry S          line   344 file /fsx/users/francis/anaconda3/envs/poltype-dev/share/psi4/basis/6-31pgs.gbs 
    atoms 15-16         entry O          line   157 file /fsx/users/francis/anaconda3/envs/poltype-dev/share/psi4/basis/6-31pgs.gbs 
    atoms 17-23         entry H          line    46 file /fsx/users/francis/anaconda3/envs/poltype-dev/share/psi4/basis/6-31pgs.gbs 


         ---------------------------------------------------------
                                   SCF
               by Justin Turney, Rob Parrish, Andy Simmonett
                          and Daniel G. A. Smith
                              RKS Reference
                        8 Threads,  15258 MiB Core
         ---------------------------------------------------------

  ==> Geometry <==

    Molecular point group: c1
    Full point group: C1

    Geometry (in Angstrom), charge = 0, multiplicity = 1:

       Center              X                  Y                   Z               Mass       
    ------------   -----------------  -----------------  -----------------  -----------------
         N           -1.034770874097    -1.495281539267     0.148328068495    14.003074004430
         C           -2.338176874097    -1.160932539267     0.406384068495    12.000000000000
         C           -2.648153874097     0.370069460733     0.498691068495    12.000000000000
         F           -3.605904874097     0.655290460733    -0.448624931505    18.998403162730
         F           -3.187644874097     0.608549460733     1.742896068495    18.998403162730
         C           -1.450916874097     1.362105460733     0.291758068495    12.000000000000
         C           -0.115909874097     0.780026460733     0.022580068495    12.000000000000
         C            1.000434125903     1.623251460733    -0.168150931505    12.000000000000
         C            2.271634125903     1.093930460733    -0.426926931505    12.000000000000
         C            2.463220125903    -0.313362539267    -0.503442931505    12.000000000000
         C            1.345227125903    -1.153864539267    -0.302054931505    12.000000000000
         C            0.067103125903    -0.628191539267    -0.044477931505    12.000000000000
         S            4.002797125903    -1.161239539267    -0.783095931505    31.972071174400
         C            5.325870125903     0.082258460733    -0.825256931505    12.000000000000
         O           -3.183322874097    -2.032629539267     0.549813068495    15.994914619570
         O           -1.628630874097     2.575052460733     0.353087068495    15.994914619570
         H            3.091111125903     1.792657460733    -0.584833931505     1.007825032230
         H            0.847501125903     2.701486460733    -0.109528931505     1.007825032230
         H           -0.899724874097    -2.495956539267     0.099516068495     1.007825032230
         H            1.475541125903    -2.236563539267    -0.342370931505     1.007825032230
         H            5.530478125903     0.353827460733    -1.865435931505     1.007825032230
         H            5.062400125903     0.961796460733    -0.233444931505     1.007825032230
         H            6.227418125903    -0.367466539267    -0.397014931505     1.007825032230

  Running in c1 symmetry.

  Rotational constants: A =      0.03854  B =      0.00806  C =      0.00694 [cm^-1]
  Rotational constants: A =   1155.46231  B =    241.74721  C =    208.04244 [MHz]
  Nuclear repulsion = 1173.442092200612706

  Charge       = 0
  Multiplicity = 1
  Electrons    = 124
  Nalpha       = 62
  Nbeta        = 62

  ==> Algorithm <==

  SCF Algorithm Type is DF.
  DIIS enabled.
  MOM disabled.
  Fractional occupation disabled.
  Guess Type is SAD.
  Energy threshold   = 1.00e-08
  Density threshold  = 1.00e-08
  Integral threshold = 0.00e+00

  ==> Primary Basis <==

  Basis Set: 6-31+G*
    Blend: 6-31+G*
    Number of shells: 144
    Number of basis function: 322
    Number of Cartesian functions: 322
    Spherical Harmonics?: false
    Max angular momentum: 2

  ==> DFT Potential <==

   => Composite Functional: WB97X-D <= 

    wB97X-D Hyb-GGA Exchange-Correlation Functional

    J.-D. Chai and M. Head-Gordon, Phys. Chem. Chem. Phys. 10, 6615 (2008)

    Deriv               =              1
    GGA                 =           TRUE
    Meta                =          FALSE

    Exchange Hybrid     =           TRUE
    MP2 Hybrid          =          FALSE

   => Exchange-Correlation Functionals <=

    1.0000   wB97D range-separated functional

   => Exact (HF) Exchange <=

    0.7780            HF,LR [omega = 0.2000]
    0.2220               HF 

   => Molecular Quadrature <=

    Radial Scheme          =       TREUTLER
    Pruning Scheme         =           FLAT
    Nuclear Scheme         =       TREUTLER

    BS radius alpha        =              1
    Pruning alpha          =              1
    Radial Points          =             75
    Spherical Points       =            302
    Total Points           =         520854
    Total Blocks           =           3887
    Max Points             =            256
    Max Functions          =            288

   => WB97X-D: Empirical Dispersion <=

    Chai and Head-Gordon Dispersion Correction
    Chai, J.-D.; Head-Gordon, M. (2010), J. Chem. Phys., 132: 6615-6620

        s6 =       1.000000

   => Loading Basis Set <=

    Name: (6-31+G* AUX)
    Role: JKFIT
    Keyword: DF_BASIS_SCF
    atoms 1             entry N          line   252 file /fsx/users/francis/anaconda3/envs/poltype-dev/share/psi4/basis/heavy-aug-cc-pvdz-jkfit.gbs 
    atoms 2-3, 6-12, 14 entry C          line   194 file /fsx/users/francis/anaconda3/envs/poltype-dev/share/psi4/basis/heavy-aug-cc-pvdz-jkfit.gbs 
    atoms 4-5           entry F          line   368 file /fsx/users/francis/anaconda3/envs/poltype-dev/share/psi4/basis/heavy-aug-cc-pvdz-jkfit.gbs 
    atoms 13            entry S          line   730 file /fsx/users/francis/anaconda3/envs/poltype-dev/share/psi4/basis/heavy-aug-cc-pvdz-jkfit.gbs 
    atoms 15-16         entry O          line   310 file /fsx/users/francis/anaconda3/envs/poltype-dev/share/psi4/basis/heavy-aug-cc-pvdz-jkfit.gbs 
    atoms 17-23         entry H          line   116 file /fsx/users/francis/anaconda3/envs/poltype-dev/share/psi4/basis/heavy-aug-cc-pvdz-jkfit.gbs 

  ==> Pre-Iterations <==

   -------------------------------------------------------
    Irrep   Nso     Nmo     Nalpha   Nbeta   Ndocc  Nsocc
   -------------------------------------------------------
     A        322     322       0       0       0       0
   -------------------------------------------------------
    Total     322     322      62      62      62       0
   -------------------------------------------------------

  ==> Integral Setup <==

  ==> DiskDFJK: Density-Fitted J/K Matrices <==

    J tasked:                  Yes
    K tasked:                  Yes
    wK tasked:                 Yes
    Omega:               2.000E-01
    OpenMP threads:              8
    Integrals threads:           8
    Memory [MiB]:             8464
    Algorithm:                Core
    Integral Cache:           NONE
    Schwarz Cutoff:          1E-12
    Fitting Condition:       1E-10

   => Auxiliary Basis Set <=

  Basis Set: (6-31+G* AUX)
    Blend: HEAVY-AUG-CC-PVDZ-JKFIT
    Number of shells: 523
    Number of basis function: 1840
    Number of Cartesian functions: 1840
    Spherical Harmonics?: false
    Max angular momentum: 3

  Cached 100.0% of DFT collocation blocks in 2.910 [GiB].

  Minimum eigenvalue in the overlap matrix is 4.8748318213E-07.
  Using Symmetric Orthogonalization.

  SCF Guess: Superposition of Atomic Densities via on-the-fly atomic UHF.

  ==> Iterations <==

                           Total Energy        Delta E     RMS |[F,P]|

   @DF-RKS iter SAD: -1187.20154065871611   -1.18720e+03   0.00000e+00 
   @DF-RKS iter   1: -1187.53467173101444   -3.33131e-01   3.40336e-03 DIIS
   @DF-RKS iter   2: -1187.54470953812779   -1.00378e-02   3.70924e-03 DIIS
   @DF-RKS iter   3: -1188.08551464255515   -5.40805e-01   7.82538e-04 DIIS
   @DF-RKS iter   4: -1188.10962388711346   -2.41092e-02   2.68420e-04 DIIS
   @DF-RKS iter   5: -1188.11317034734680   -3.54646e-03   7.23583e-05 DIIS
   @DF-RKS iter   6: -1188.11357126878738   -4.00921e-04   2.37440e-05 DIIS
   @DF-RKS iter   7: -1188.11363202492294   -6.07561e-05   1.02876e-05 DIIS
   @DF-RKS iter   8: -1188.11364845867365   -1.64338e-05   3.92400e-06 DIIS
   @DF-RKS iter   9: -1188.11365129226192   -2.83359e-06   2.14999e-06 DIIS
   @DF-RKS iter  10: -1188.11365164233052   -3.50069e-07   7.22463e-07 DIIS
   @DF-RKS iter  11: -1188.11365169243459   -5.01041e-08   3.25998e-07 DIIS
   @DF-RKS iter  12: -1188.11365170278850   -1.03539e-08   1.49526e-07 DIIS
   @DF-RKS iter  13: -1188.11365170532849   -2.53999e-09   5.76591e-08 DIIS
   @DF-RKS iter  14: -1188.11365170562590   -2.97405e-10   2.45051e-08 DIIS
   @DF-RKS iter  15: -1188.11365170567728   -5.13865e-11   1.18053e-08 DIIS
   @DF-RKS iter  16: -1188.11365170568661   -9.32232e-12   6.30208e-09 DIIS
  Energy and wave function converged.


  ==> Post-Iterations <==

    Orbital Energies [Eh]
    ---------------------

    Doubly Occupied:                                                      

       1A    -89.085989     2A    -24.872891     3A    -24.872880  
       4A    -19.304602     5A    -19.293247     6A    -14.542196  
       7A    -10.510067     8A    -10.458035     9A    -10.435003  
      10A    -10.410957    11A    -10.394480    12A    -10.358740  
      13A    -10.355258    14A    -10.352535    15A    -10.352464  
      16A    -10.347298    17A     -8.103338    18A     -6.054117  
      19A     -6.049486    20A     -6.043504    21A     -1.381237  
      22A     -1.324914    23A     -1.188514    24A     -1.174317  
      25A     -1.091517    26A     -0.999027    27A     -0.939941  
      28A     -0.903677    29A     -0.885806    30A     -0.869224  
      31A     -0.798108    32A     -0.763328    33A     -0.750232  
      34A     -0.744188    35A     -0.693058    36A     -0.678336  
      37A     -0.665481    38A     -0.644015    39A     -0.627974  
      40A     -0.589342    41A     -0.583917    42A     -0.564310  
      43A     -0.561832    44A     -0.555783    45A     -0.553713  
      46A     -0.551122    47A     -0.548137    48A     -0.535054  
      49A     -0.521500    50A     -0.516010    51A     -0.506398  
      52A     -0.498737    53A     -0.490613    54A     -0.485723  
      55A     -0.474507    56A     -0.438999    57A     -0.429814  
      58A     -0.395569    59A     -0.394861    60A     -0.367249  
      61A     -0.339562    62A     -0.317938  

    Virtual:                                                              

      63A     -0.046185    64A      0.011574    65A      0.039308  
      66A      0.047438    67A      0.052016    68A      0.065126  
      69A      0.066581    70A      0.074725    71A      0.080590  
      72A      0.084822    73A      0.092505    74A      0.095348  
      75A      0.105101    76A      0.111269    77A      0.114722  
      78A      0.117449    79A      0.117817    80A      0.131164  
      81A      0.137278    82A      0.138661    83A      0.143634  
      84A      0.149299    85A      0.153983    86A      0.163395  
      87A      0.172278    88A      0.174954    89A      0.175898  
      90A      0.180215    91A      0.184042    92A      0.189525  
      93A      0.192715    94A      0.197535    95A      0.203042  
      96A      0.204491    97A      0.213781    98A      0.217611  
      99A      0.219414   100A      0.226877   101A      0.233270  
     102A      0.235985   103A      0.240923   104A      0.244018  
     105A      0.246787   106A      0.250924   107A      0.257306  
     108A      0.261596   109A      0.266175   110A      0.271032  
     111A      0.276468   112A      0.284585   113A      0.287724  
     114A      0.290903   115A      0.300225   116A      0.301215  
     117A      0.312103   118A      0.314665   119A      0.321528  
     120A      0.326875   121A      0.329909   122A      0.330247  
     123A      0.336479   124A      0.342165   125A      0.355084  
     126A      0.360337   127A      0.362398   128A      0.373006  
     129A      0.378260   130A      0.383451   131A      0.392118  
     132A      0.395699   133A      0.397878   134A      0.401895  
     135A      0.411446   136A      0.416544   137A      0.424570  
     138A      0.434321   139A      0.444372   140A      0.448547  
     141A      0.458053   142A      0.468981   143A      0.477150  
     144A      0.481755   145A      0.503290   146A      0.512095  
     147A      0.526044   148A      0.528483   149A      0.536309  
     150A      0.554964   151A      0.575344   152A      0.580799  
     153A      0.585430   154A      0.595923   155A      0.605864  
     156A      0.627034   157A      0.656026   158A      0.662110  
     159A      0.672718   160A      0.695146   161A      0.728278  
     162A      0.742862   163A      0.752970   164A      0.762158  
     165A      0.769410   166A      0.771265   167A      0.788576  
     168A      0.797606   169A      0.804116   170A      0.818064  
     171A      0.822210   172A      0.843277   173A      0.861607  
     174A      0.877755   175A      0.882967   176A      0.885405  
     177A      0.899298   178A      0.916324   179A      0.926484  
     180A      0.930682   181A      0.963626   182A      0.966413  
     183A      0.981154   184A      0.983298   185A      1.016535  
     186A      1.021029   187A      1.043269   188A      1.057287  
     189A      1.066338   190A      1.079190   191A      1.083837  
     192A      1.094483   193A      1.116718   194A      1.152618  
     195A      1.152854   196A      1.171769   197A      1.201486  
     198A      1.205037   199A      1.215055   200A      1.216430  
     201A      1.226192   202A      1.231478   203A      1.268894  
     204A      1.282329   205A      1.284107   206A      1.321248  
     207A      1.323240   208A      1.335287   209A      1.344589  
     210A      1.385800   211A      1.403076   212A      1.407435  
     213A      1.414492   214A      1.418790   215A      1.440894  
     216A      1.445992   217A      1.451876   218A      1.465123  
     219A      1.467116   220A      1.484360   221A      1.503375  
     222A      1.512159   223A      1.524422   224A      1.533441  
     225A      1.547110   226A      1.592651   227A      1.620971  
     228A      1.649927   229A      1.664055   230A      1.670554  
     231A      1.709547   232A      1.750042   233A      1.753485  
     234A      1.758811   235A      1.759704   236A      1.762568  
     237A      1.769590   238A      1.780652   239A      1.788391  
     240A      1.821392   241A      1.838801   242A      1.864692  
     243A      1.874164   244A      1.897086   245A      1.899376  
     246A      1.910201   247A      1.919445   248A      1.946478  
     249A      1.963356   250A      1.966697   251A      1.971556  
     252A      2.004426   253A      2.038911   254A      2.049366  
     255A      2.057758   256A      2.058043   257A      2.081393  
     258A      2.090563   259A      2.099455   260A      2.112530  
     261A      2.146048   262A      2.152605   263A      2.167247  
     264A      2.200389   265A      2.205875   266A      2.210970  
     267A      2.248603   268A      2.257731   269A      2.263820  
     270A      2.268350   271A      2.302696   272A      2.308143  
     273A      2.318202   274A      2.343742   275A      2.348207  
     276A      2.367525   277A      2.380760   278A      2.403104  
     279A      2.462603   280A      2.465399   281A      2.510841  
     282A      2.514505   283A      2.569203   284A      2.625938  
     285A      2.657142   286A      2.676360   287A      2.704712  
     288A      2.730562   289A      2.736529   290A      2.769996  
     291A      2.775400   292A      2.827550   293A      2.828535  
     294A      2.849891   295A      2.898782   296A      2.948159  
     297A      2.960014   298A      3.030563   299A      3.124454  
     300A      3.155241   301A      3.210693   302A      3.233546  
     303A      3.338512   304A      3.379414   305A      3.463089  
     306A      3.487256   307A      4.035096   308A      4.279117  
     309A      4.309829   310A      4.332065   311A      4.361083  
     312A      4.377372   313A      4.416074   314A      4.469851  
     315A      4.486352   316A      4.521544   317A      4.580714  
     318A      4.780214   319A      4.835674   320A      5.117424  
     321A      5.696109   322A      7.146392  

    Final Occupation by Irrep:
              A 
    DOCC [    62 ]

  @DF-RKS Final Energy: -1188.11365170568661

   => Energetics <=

    Nuclear Repulsion Energy =           1173.4420922006127057
    One-Electron Energy =               -3960.9693597443401814
    Two-Electron Energy =                1688.8656169153271094
    DFT Exchange-Correlation Energy =     -89.4385935640493415
    Empirical Dispersion Energy =          -0.0134075132371740
    VV10 Nonlocal Energy =                  0.0000000000000000
    Total Energy =                      -1188.1136517056866069

Computation Completed


Properties will be evaluated at   0.000000,   0.000000,   0.000000 [a0]

Properties computed using the SCF density matrix

  Nuclear Dipole Moment: [e a0]
     X:    26.4949      Y:    -0.5505      Z:    -4.4562

  Electronic Dipole Moment: [e a0]
     X:   -23.2188      Y:     0.1984      Z:     3.9042

  Dipole Moment: [e a0]
     X:     3.2761      Y:    -0.3521      Z:    -0.5520     Total:     3.3408

  Dipole Moment: [D]
     X:     8.3269      Y:    -0.8950      Z:    -1.4029     Total:     8.4916


*** tstop() called on cpu-spot-dy-c5n2xlarge-1 at Tue Jun 22 05:22:28 2021
Module time:
	user time   =     573.44 seconds =       9.56 minutes
	system time =      10.39 seconds =       0.17 minutes
	total time  =         77 seconds =       1.28 minutes
Total time:
	user time   =     573.44 seconds =       9.56 minutes
	system time =      10.39 seconds =       0.17 minutes
	total time  =         77 seconds =       1.28 minutes

*** tstart() called on cpu-spot-dy-c5n2xlarge-1
*** at Tue Jun 22 05:22:28 2021


         ------------------------------------------------------------
                                   SCF GRAD                          
                          Rob Parrish, Justin Turney,                
                       Andy Simmonett, and Alex Sokolov              
         ------------------------------------------------------------

  ==> Geometry <==

    Molecular point group: c1
    Full point group: C1

    Geometry (in Angstrom), charge = 0, multiplicity = 1:

       Center              X                  Y                   Z               Mass       
    ------------   -----------------  -----------------  -----------------  -----------------
         N           -1.034770874097    -1.495281539267     0.148328068495    14.003074004430
         C           -2.338176874097    -1.160932539267     0.406384068495    12.000000000000
         C           -2.648153874097     0.370069460733     0.498691068495    12.000000000000
         F           -3.605904874097     0.655290460733    -0.448624931505    18.998403162730
         F           -3.187644874097     0.608549460733     1.742896068495    18.998403162730
         C           -1.450916874097     1.362105460733     0.291758068495    12.000000000000
         C           -0.115909874097     0.780026460733     0.022580068495    12.000000000000
         C            1.000434125903     1.623251460733    -0.168150931505    12.000000000000
         C            2.271634125903     1.093930460733    -0.426926931505    12.000000000000
         C            2.463220125903    -0.313362539267    -0.503442931505    12.000000000000
         C            1.345227125903    -1.153864539267    -0.302054931505    12.000000000000
         C            0.067103125903    -0.628191539267    -0.044477931505    12.000000000000
         S            4.002797125903    -1.161239539267    -0.783095931505    31.972071174400
         C            5.325870125903     0.082258460733    -0.825256931505    12.000000000000
         O           -3.183322874097    -2.032629539267     0.549813068495    15.994914619570
         O           -1.628630874097     2.575052460733     0.353087068495    15.994914619570
         H            3.091111125903     1.792657460733    -0.584833931505     1.007825032230
         H            0.847501125903     2.701486460733    -0.109528931505     1.007825032230
         H           -0.899724874097    -2.495956539267     0.099516068495     1.007825032230
         H            1.475541125903    -2.236563539267    -0.342370931505     1.007825032230
         H            5.530478125903     0.353827460733    -1.865435931505     1.007825032230
         H            5.062400125903     0.961796460733    -0.233444931505     1.007825032230
         H            6.227418125903    -0.367466539267    -0.397014931505     1.007825032230

  Nuclear repulsion = 1173.442092200612706

  ==> Basis Set <==

  Basis Set: 6-31+G*
    Blend: 6-31+G*
    Number of shells: 144
    Number of basis function: 322
    Number of Cartesian functions: 322
    Spherical Harmonics?: false
    Max angular momentum: 2

  ==> DFJKGrad: Density-Fitted SCF Gradients <==

    Gradient:                    1
    J tasked:                  Yes
    K tasked:                  Yes
    wK tasked:                 Yes
    Omega:               2.000E-01
    OpenMP threads:              8
    Integrals threads:           8
    Memory [MiB]:            11444
    Schwarz Cutoff:          0E+00
    Fitting Condition:       1E-10

   => Auxiliary Basis Set <=

  Basis Set: (6-31+G* AUX)
    Blend: HEAVY-AUG-CC-PVDZ-JKFIT
    Number of shells: 523
    Number of basis function: 1840
    Number of Cartesian functions: 1840
    Spherical Harmonics?: false
    Max angular momentum: 3

  ==> DFT Potential <==

   => Composite Functional: WB97X-D <= 

    wB97X-D Hyb-GGA Exchange-Correlation Functional

    J.-D. Chai and M. Head-Gordon, Phys. Chem. Chem. Phys. 10, 6615 (2008)

    Deriv               =              1
    GGA                 =           TRUE
    Meta                =          FALSE

    Exchange Hybrid     =           TRUE
    MP2 Hybrid          =          FALSE

   => Exchange-Correlation Functionals <=

    1.0000   wB97D range-separated functional

   => Exact (HF) Exchange <=

    0.7780            HF,LR [omega = 0.2000]
    0.2220               HF 

   => Molecular Quadrature <=

    Radial Scheme          =       TREUTLER
    Pruning Scheme         =           FLAT
    Nuclear Scheme         =       TREUTLER

    BS radius alpha        =              1
    Pruning alpha          =              1
    Radial Points          =             75
    Spherical Points       =            302
    Total Points           =         520854
    Total Blocks           =           3887
    Max Points             =            256
    Max Functions          =            288


  -Total Gradient:
     Atom            X                  Y                   Z
    ------   -----------------  -----------------  -----------------
       1       -0.009574696651    -0.010913764115     0.001508555437
       2        0.007949706047     0.011477172281    -0.001326142311
       3        0.012447657342    -0.003961793080    -0.002508046994
       4       -0.012480807480     0.003797264970    -0.013050525637
       5       -0.006781412151     0.003192054002     0.016891434428
       6       -0.008835087217    -0.021719482616     0.001219925353
       7       -0.000230180653     0.007405523542    -0.000338028928
       8       -0.003528725162     0.013761723947     0.001003762679
       9        0.006302995456     0.003543356644     0.000634886424
      10        0.008889304894    -0.010134664546    -0.005349638245
      11        0.004116226798    -0.002445349730    -0.000149912190
      12       -0.002083318225    -0.006053048924     0.001231665260
      13        0.006297956470     0.002300896104    -0.003198292929
      14        0.003494623740    -0.002726937450     0.004210768161
      15       -0.008651909329    -0.021725572918     0.001192630093
      16        0.005034394073     0.029202390626    -0.000317016891
      17        0.000786084015     0.003558904564    -0.000085231499
      18       -0.000718283036     0.003886215596     0.000487156692
      19       -0.004060459468     0.001630929191     0.000828731191
      20        0.000286995380    -0.002494378029    -0.000170724576
      21        0.000249739180    -0.003625658472    -0.002733588109
      22       -0.001388691300     0.000170436967     0.000309916573
      23        0.003315178154     0.001426604310    -0.000325485682


*** tstop() called on cpu-spot-dy-c5n2xlarge-1 at Tue Jun 22 05:22:51 2021
Module time:
	user time   =     149.54 seconds =       2.49 minutes
	system time =       3.72 seconds =       0.06 minutes
	total time  =         23 seconds =       0.38 minutes
Total time:
	user time   =     722.99 seconds =      12.05 minutes
	system time =      14.11 seconds =       0.24 minutes
	total time  =        100 seconds =       1.67 minutes

			-----------------------------------------
			 OPTKING 2.0: for geometry optimizations 
			  - R.A. King,  Bethel University        
			-----------------------------------------
	At level 1: Red. Int., RFO, no backsteps, dynamic trust

	Internal coordinates to be generated automatically.
	Detected frag 1 with atoms:  1 2 3 4 5 6 7 8 9 10 11 12 13 14 15 16 17 18 19 20
	 21 22 23
	---Fragment 1 Bond Connectivity---
	 1 : 2 12 19
	 2 : 1 3 15
	 3 : 2 4 5 6
	 4 : 3
	 5 : 3
	 6 : 3 7 16
	 7 : 6 8 12
	 8 : 7 9 18
	 9 : 8 10 17
	 10 : 9 11 13
	 11 : 10 12 20
	 12 : 1 7 11
	 13 : 10 14
	 14 : 13 21 22 23
	 15 : 2
	 16 : 6
	 17 : 9
	 18 : 8
	 19 : 1
	 20 : 11
	 21 : 14
	 22 : 14
	 23 : 14

	Assuming in current code that numbering for constraints corresponds to unified fragment.
	Frozen dihedral atom list: 
	    11    10    13    14
	     9    10    13    14
	    21    14    13    10
	---Fragment 1 Geometry and Gradient---
	 N          -1.9554335546       -2.8256725897        0.2802994262
	 C          -4.4185139249       -2.1938445493        0.7679545912
	 C          -5.0042855601        0.6993299282        0.9423895407
	 F          -6.8141726465        1.2383195034       -0.8477782536
	 F          -6.0237757973        1.1499918146        3.2935962346
	 C          -2.7418355228        2.5740062748        0.5513428443
	 C          -0.2190379173        1.4740363814        0.0426701453
	 C           1.8905465045        3.0675006935       -0.3177592083
	 C           4.2927663552        2.0672289711       -0.8067749761
	 C           4.6548114247       -0.5921693772       -0.9513692603
	 C           2.5421108445       -2.1804879651       -0.5708010954
	 C           0.1268065301       -1.1871099635       -0.0840511092
	 S           7.5641903037       -2.1944246953       -1.4798368405
	 C          10.0644359177        0.1554459623       -1.5595095837
	 O          -6.0156084009       -3.8411131437        1.0389961197
	 O          -3.0776663115        4.8661439095        0.6672378579
	 H           5.8413534513        3.3876316375       -1.1051759594
	 H           1.6015450190        5.1050695424       -0.2069796834
	 H          -1.7002336003       -4.7166742803        0.1880581145
	 H           2.7883686148       -4.2264925514       -0.6469872939
	 H          10.4510890008        0.6686369965       -3.5251630151
	 H           9.5665497754        1.8175318992       -0.4411469859
	 H          11.7681147267       -0.6944111195       -0.7502494883
	            -0.0095746967       -0.0109137641        0.0015085554
	             0.0079497060        0.0114771723       -0.0013261423
	             0.0124476573       -0.0039617931       -0.0025080470
	            -0.0124808075        0.0037972650       -0.0130505256
	            -0.0067814122        0.0031920540        0.0168914344
	            -0.0088350872       -0.0217194826        0.0012199254
	            -0.0002301807        0.0074055235       -0.0003380289
	            -0.0035287252        0.0137617239        0.0010037627
	             0.0063029955        0.0035433566        0.0006348864
	             0.0088893049       -0.0101346645       -0.0053496382
	             0.0041162268       -0.0024453497       -0.0001499122
	            -0.0020833182       -0.0060530489        0.0012316653
	             0.0062979565        0.0023008961       -0.0031982929
	             0.0034946237       -0.0027269375        0.0042107682
	            -0.0086519093       -0.0217255729        0.0011926301
	             0.0050343941        0.0292023906       -0.0003170169
	             0.0007860840        0.0035589046       -0.0000852315
	            -0.0007182830        0.0038862156        0.0004871567
	            -0.0040604595        0.0016309292        0.0008287312
	             0.0002869954       -0.0024943780       -0.0001707246
	             0.0002497392       -0.0036256585       -0.0027335881
	            -0.0013886913        0.0001704370        0.0003099166
	             0.0033151782        0.0014266043       -0.0003254857

	Previous optimization step data not found.  Starting new optimization.

	---Fragment 1 Intrafragment Coordinates---
	 - Coordinate -           - BOHR/RAD -       - ANG/DEG -
	 R(1,2)           =         2.589166	       1.370127
	 R(1,12)          =         2.674577	       1.415325
	 R(1,19)          =         1.910372	       1.010926
	 R(2,3)           =         2.957028	       1.564792
	 R(2,15)          =         2.310339	       1.222579
	 R(3,4)           =         2.602096	       1.376970
	 R(3,5)           =         2.602043	       1.376942
	 R(3,6)           =         2.964120	       1.568545
	 R(6,7)           =         2.798784	       1.481052
	 R(6,16)          =         2.319506	       1.227430
	 R(7,8)           =         2.668217	       1.411960
	 R(7,12)          =         2.686516	       1.421643
	 R(8,9)           =         2.647705	       1.401105
	 R(8,18)          =         2.060942	       1.090603
	 R(9,10)          =         2.687821	       1.422334
	 R(9,17)          =         2.056849	       1.088438
	 R(10,11)         =         2.670410	       1.413120
	 R(10,13)         =         3.363181	       1.779719
	 R(11,12)         =         2.656581	       1.405802
	 R(11,20)         =         2.062179	       1.091258
	 R(13,14)         =         3.432123	       1.816201
	 R(14,21)         =         2.068008	       1.094343
	 R(14,22)         =         2.064257	       1.092358
	 R(14,23)         =         2.068739	       1.094729
	 B(1,2,3)         =         2.024521	     115.996526
	 B(1,2,15)        =         2.101015	     120.379319
	 B(1,12,7)        =         2.094637	     120.013869
	 B(1,12,11)       =         2.098669	     120.244859
	 B(2,1,12)        =         2.235434	     128.080932
	 B(2,1,19)        =         1.958138	     112.193056
	 B(2,3,4)         =         1.875348	     107.449506
	 B(2,3,5)         =         1.875880	     107.480009
	 B(2,3,6)         =         2.048583	     117.375186
	 B(3,2,15)        =         2.157648	     123.624144
	 B(3,6,7)         =         2.052651	     117.608252
	 B(3,6,16)        =         2.103530	     120.523402
	 B(4,3,5)         =         1.889417	     108.255627
	 B(4,3,6)         =         1.885076	     108.006906
	 B(5,3,6)         =         1.884650	     107.982468
	 B(6,7,8)         =         2.097297	     120.166259
	 B(6,7,12)        =         2.110542	     120.925151
	 B(7,6,16)        =         2.127004	     121.868343
	 B(7,8,9)         =         2.113745	     121.108674
	 B(7,8,18)        =         2.062694	     118.183641
	 B(7,12,11)       =         2.089879	     119.741265
	 B(8,7,12)        =         2.075342	     118.908318
	 B(8,9,10)        =         2.101266	     120.393685
	 B(8,9,17)        =         2.057098	     117.863047
	 B(9,8,18)        =         2.106746	     120.707666
	 B(9,10,11)       =         2.064921	     118.311261
	 B(9,10,13)       =         2.209742	     126.608866
	 B(10,9,17)       =         2.124625	     121.732056
	 B(10,11,12)      =         2.121165	     121.533794
	 B(10,11,20)      =         2.083320	     119.365419
	 B(10,13,14)      =         1.883520	     107.917747
	 B(11,10,13)      =         2.008027	     115.051445
	 B(12,1,19)       =         2.089613	     119.725996
	 B(12,11,20)      =         2.078690	     119.100171
	 B(13,14,21)      =         1.905166	     109.157999
	 B(13,14,22)      =         1.942277	     111.284293
	 B(13,14,23)      =         1.885550	     108.034056
	 B(21,14,22)      =         1.939328	     111.115315
	 B(21,14,23)      =         1.896308	     108.650444
	 B(22,14,23)      =         1.893857	     108.510004
	 D(1,2,3,4)       =         2.124949	     121.750582
	 D(1,2,3,5)       =        -2.128216	    -121.937800
	 D(1,2,3,6)       =        -0.001701	      -0.097482
	 D(1,12,7,6)      =        -0.000982	      -0.056245
	 D(1,12,7,8)      =         3.137302	     179.754148
	 D(1,12,11,10)    =         3.137606	     179.771561
	 D(1,12,11,20)    =        -0.009006	      -0.515989
	 D(2,1,12,7)      =         0.000647	       0.037045
	 D(2,1,12,11)     =        -3.141459	    -179.992349
	 D(2,3,6,7)       =         0.001392	       0.079735
	 D(2,3,6,16)      =        -3.140528	    -179.938976
	 D(3,2,1,12)      =         0.000744	       0.042652
	 D(3,2,1,19)      =        -3.140035	    -179.910731
	 D(3,6,7,8)       =        -3.138309	    -179.811882
	 D(3,6,7,12)      =        -0.000067	      -0.003863
	 D(4,3,2,15)      =        -1.015970	     -58.210815
	 D(4,3,6,7)       =        -2.120223	    -121.479854
	 D(4,3,6,16)      =         1.021043	      58.501434
	 D(5,3,2,15)      =         1.014050	      58.100803
	 D(5,3,6,7)       =         2.123368	     121.660030
	 D(5,3,6,16)      =        -1.018551	     -58.358682
	 D(6,3,2,15)      =         3.140565	     179.941120
	 D(6,7,8,9)       =        -3.139049	    -179.854237
	 D(6,7,8,18)      =         0.001690	       0.096805
	 D(6,7,12,11)     =         3.141121	     179.973001
	 D(7,8,9,10)      =         0.000361	       0.020668
	 D(7,8,9,17)      =         3.121061	     178.823647
	 D(7,12,1,19)     =         3.141372	     179.987342
	 D(7,12,11,10)    =        -0.004499	      -0.257753
	 D(7,12,11,20)    =         3.132075	     179.454697
	 D(8,7,6,16)      =         0.003615	       0.207097
	 D(8,7,12,11)     =        -0.003780	      -0.216606
	 D(8,9,10,11)     =        -0.008450	      -0.484141
	 D(8,9,10,13)     =        -3.114377	    -178.440648
	 D(9,8,7,12)      =         0.005828	       0.333894
	 D(9,10,11,12)    =         0.010558	       0.604952
	 D(9,10,11,20)    =        -3.126003	    -179.106752
	*D(9,10,13,14)    =         0.077110	       4.418063
	 D(10,9,8,18)     =        -3.140356	    -179.929141
	*D(10,13,14,21)   =        -1.673232	     -95.869146
	 D(10,13,14,22)   =         0.473507	      27.129971
	 D(10,13,14,23)   =         2.550835	     146.152080
	 D(11,10,9,17)    =        -3.128326	    -179.239893
	*D(11,10,13,14)   =        -3.029823	    -173.596087
	 D(11,12,1,19)    =        -0.000734	      -0.042053
	 D(12,1,2,15)     =        -3.141499	    -179.994607
	 D(12,7,6,16)     =        -3.141329	    -179.984884
	 D(12,7,8,18)     =        -3.136620	    -179.715064
	 D(12,11,10,13)   =         3.120550	     178.794335
	 D(13,10,9,17)    =         0.048932	       2.803600
	 D(13,10,11,20)   =        -0.016011	      -0.917369
	 D(15,2,1,19)     =         0.000908	       0.052009
	 D(17,9,8,18)     =        -0.019655	      -1.126162

	Current energy   :     -1188.1136517057

	Generating empirical Hessian (Schlegel '84) for each fragment.
	Taking RFO optimization step.
	Going to follow RFO solution 1.
	Using RFO vector 1.
	Norm of target step-size    0.19620
	Projected energy change by RFO approximation:        -0.0126645188

	Back-transformation to cartesian coordinates...
	Could not converge backtransformation.
	Using first guess instead.

	Back-transformation to cartesian coordinates to adjust frozen coordinates...

	--- Internal Coordinate Step in ANG or DEG, aJ/ANG or AJ/DEG ---
	 ---------------------------------------------------------------------------
	   Coordinate                Previous        Force       Change         New 
	   ----------                --------       ------       ------       ------
	    1 R(1,2)          =      1.370127    -0.008413     0.417670     1.787798
	    2 R(1,12)         =      1.415325    -0.132288     1.572261     2.987586
	    3 R(1,19)         =      1.010926     0.018321     2.093959     3.104885
	    4 R(2,3)          =      1.564792    -0.096255     3.134067     4.698859
	    5 R(2,15)         =      1.222579    -0.178127     1.560500     2.783079
	    6 R(3,4)          =      1.376970    -0.152183     1.840446     3.217416
	    7 R(3,5)          =      1.376942    -0.152383     2.494238     3.871180
	    8 R(3,6)          =      1.568545    -0.092026     1.805909     3.374454
	    9 R(6,7)          =      1.481052    -0.080157     0.825993     2.307046
	   10 R(6,16)         =      1.227430    -0.231841     2.467667     3.695097
	   11 R(7,8)          =      1.411960    -0.108172     1.494957     2.906917
	   12 R(7,12)         =      1.421643    -0.118599     2.896292     4.317935
	   13 R(8,9)          =      1.401105    -0.141528     0.719743     2.120848
	   14 R(8,18)         =      1.090603    -0.032895     2.242424     3.333028
	   15 R(9,10)         =      1.422334    -0.144598     2.891941     4.314275
	   16 R(9,17)         =      1.088438    -0.023673     1.263721     2.352159
	   17 R(10,11)        =      1.413120    -0.110284     1.529129     2.942250
	   18 R(10,13)        =      1.779719    -0.095611     1.218892     2.998611
	   19 R(11,12)        =      1.405802    -0.140137     0.737779     2.143580
	   20 R(11,20)        =      1.091258    -0.020534     2.258772     3.350030
	   21 R(13,14)        =      1.816201    -0.006342     2.623854     4.440055
	   22 R(14,21)        =      1.094343    -0.014385     2.328441     3.422784
	   23 R(14,22)        =      1.092358    -0.005417     2.143442     3.235800
	   24 R(14,23)        =      1.094729    -0.016302     1.015284     2.110013
	   25 B(1,2,3)        =    115.996526    -0.000059     7.132844   123.129370
	   26 B(1,2,15)       =    120.379319     0.000818   -36.172039    84.207280
	   27 B(1,12,7)       =    120.013869     0.000210    30.734349   150.748219
	   28 B(1,12,11)      =    120.244859    -0.000397   -47.288137    72.956722
	   29 B(2,1,12)       =    128.080932    -0.000190   -40.118963    87.961969
	   30 B(2,1,19)       =    112.193056     0.000379     9.591115   121.784172
	   31 B(2,3,4)        =    107.449506    -0.000021    -6.114382   101.335124
	   32 B(2,3,5)        =    107.480009    -0.000023    -3.811382   103.668627
	   33 B(2,3,6)        =    117.375186     0.000067    33.116034   150.491221
	   34 B(3,2,15)       =    123.624144    -0.000759    29.038904   152.663048
	   35 B(3,6,7)        =    117.608252    -0.000143   -47.002225    70.606026
	   36 B(3,6,16)       =    120.523402    -0.000753    30.056594   150.579997
	   37 B(4,3,5)        =    108.255627    -0.000024    36.897040   145.152667
	   38 B(4,3,6)        =    108.006906    -0.000003   -33.016768    74.990138
	   39 B(5,3,6)        =    107.982468    -0.000002   -14.047521    93.934947
	   40 B(6,7,8)        =    120.166259    -0.000042   -47.260392    72.905868
	   41 B(6,7,12)       =    120.925151     0.000114    16.137326   137.062477
	   42 B(7,6,16)       =    121.868343     0.000896    16.945633   138.813976
	   43 B(7,8,9)        =    121.108674     0.000068   -46.485757    74.622918
	   44 B(7,8,18)       =    118.183641    -0.000015    31.374526   149.558167
	   45 B(7,12,11)      =    119.741265     0.000188    16.551552   136.292817
	   46 B(8,7,12)       =    118.908318    -0.000072    31.123143   150.031461
	   47 B(8,9,10)       =    120.393685    -0.000225    14.734060   135.127745
	   48 B(8,9,17)       =    117.863047     0.000289   -44.642300    73.220748
	   49 B(9,8,18)       =    120.707666    -0.000053    15.109901   135.817567
	   50 B(9,10,11)      =    118.311261     0.000446    32.486342   150.797603
	   51 B(9,10,13)      =    126.608866    -0.000504    15.805129   142.413994
	   52 B(10,9,17)      =    121.732056    -0.000064    29.891950   151.624006
	   53 B(10,11,12)     =    121.533794    -0.000405   -48.410028    73.123766
	   54 B(10,11,20)     =    119.365419     0.000200    31.288867   150.654286
	   55 B(10,13,14)     =    107.917747    -0.001452   -51.504056    56.413691
	   56 B(11,10,13)     =    115.051445     0.000058   -48.302595    66.748851
	   57 B(12,1,19)      =    119.725996    -0.000189    30.527688   150.253684
	   58 B(12,11,20)     =    119.100171     0.000205    17.119259   136.219430
	   59 B(13,14,21)     =    109.157999     0.000416     0.680205   109.838204
	   60 B(13,14,22)     =    111.284293     0.000110    23.225609   134.509902
	   61 B(13,14,23)     =    108.034056    -0.000437   -36.318647    71.715409
	   62 B(21,14,22)     =    111.115315    -0.000150    -5.545492   105.569823
	   63 B(21,14,23)     =    108.650444     0.000058    45.474916   154.125359
	   64 B(22,14,23)     =    108.510004    -0.000012   -20.222730    88.287274
	   65 D(1,2,3,4)      =    121.750582     0.000006   -42.670705    79.079877
	   66 D(1,2,3,5)      =   -121.937800    -0.000006    -3.456275  -125.394075
	   67 D(1,2,3,6)      =     -0.097482    -0.000000    -0.331860    -0.429342
	   68 D(1,12,7,6)     =     -0.056245    -0.000001    -0.248295    -0.304540
	   69 D(1,12,7,8)     =    179.754148    -0.000000    -0.309161   179.444987
	   70 D(1,12,11,10)   =    179.771561     0.000000     0.144125   179.915686
	   71 D(1,12,11,20)   =     -0.515989     0.000000    -0.030442    -0.546431
	   72 D(2,1,12,7)     =      0.037045     0.000001    -0.017072     0.019973
	   73 D(2,1,12,11)    =   -179.992349    -0.000002    -0.604171  -180.596520
	   74 D(2,3,6,7)      =      0.079735    -0.000000     0.063347     0.143082
	   75 D(2,3,6,16)     =   -179.938976     0.000000     0.070516  -179.868460
	   76 D(3,2,1,12)     =      0.042652    -0.000000     0.108825     0.151477
	   77 D(3,2,1,19)     =   -179.910731    -0.000000    -0.046079  -179.956811
	   78 D(3,6,7,8)      =   -179.811882    -0.000000     0.029363  -179.782519
	   79 D(3,6,7,12)     =     -0.003863     0.000001     0.090444     0.086581
	   80 D(4,3,2,15)     =    -58.210815     0.000006   -42.410229  -100.621045
	   81 D(4,3,6,7)      =   -121.479854    -0.000004    35.098636   -86.381218
	   82 D(4,3,6,16)     =     58.501434    -0.000004    35.105805    93.607239
	   83 D(5,3,2,15)     =     58.100803    -0.000006    -3.195800    54.905003
	   84 D(5,3,6,7)      =    121.660030     0.000003     5.526676   127.186705
	   85 D(5,3,6,16)     =    -58.358682     0.000004     5.533845   -52.824837
	   86 D(6,3,2,15)     =    179.941120    -0.000000    -0.071384   179.869736
	   87 D(6,7,8,9)      =   -179.854237    -0.000001    -0.060562  -179.914799
	   88 D(6,7,8,18)     =      0.096805    -0.000002    -0.481143    -0.384338
	   89 D(6,7,12,11)    =    179.973001     0.000002     0.575502   180.548503
	   90 D(7,8,9,10)     =      0.020668     0.000001    -0.188570    -0.167901
	   91 D(7,8,9,17)     =    178.823647    -0.000001    -0.480307   178.343340
	   92 D(7,12,1,19)    =    179.987342     0.000001     0.218154   180.205496
	   93 D(7,12,11,10)   =     -0.257753    -0.000003    -0.262534    -0.520287
	   94 D(7,12,11,20)   =    179.454697    -0.000003    -0.437101   179.017596
	   95 D(8,7,6,16)     =      0.207097    -0.000001     0.018994     0.226091
	   96 D(8,7,12,11)    =     -0.216606     0.000003     0.514636     0.298030
	   97 D(8,9,10,11)    =     -0.484141    -0.000001     0.089437    -0.394704
	   98 D(8,9,10,13)    =   -178.440648     0.000000     1.787602  -176.653046
	   99 D(9,8,7,12)     =      0.333894    -0.000002    -0.070185     0.263709
	  100 D(9,10,11,12)   =      0.604952     0.000003     0.157926     0.762879
	  101 D(9,10,11,20)   =   -179.106752     0.000002     0.522060  -178.584692
	  102 *D(9,10,13,14)  =      4.418063     0.000000    -0.000023     4.418040
	  103 D(10,9,8,18)    =   -179.929141     0.000002     0.102582  -179.826559
	  104 *D(10,13,14,21) =    -95.869146     0.000000     0.000000   -95.869146
	  105 D(10,13,14,22)  =     27.129971     0.000039    16.007783    43.137754
	  106 D(10,13,14,23)  =    146.152080    -0.000012   -34.665523   111.486558
	  107 D(11,10,9,17)   =   -179.239893    -0.000001     1.845395  -177.394498
	  108 *D(11,10,13,14) =   -173.596087     0.000000     0.000023  -173.596063
	  109 D(11,12,1,19)   =     -0.042053    -0.000002    -0.368945    -0.410998
	  110 D(12,1,2,15)    =   -179.994607    -0.000000     0.008037  -179.986570
	  111 D(12,7,6,16)    =   -179.984884     0.000000     0.080075  -179.904809
	  112 D(12,7,8,18)    =   -179.715064    -0.000003    -0.490766  -180.205830
	  113 D(12,11,10,13)  =    178.794335    -0.000002    -0.514439   178.279896
	  114 D(13,10,9,17)   =      2.803600     0.000001     3.543560     6.347160
	  115 D(13,10,11,20)  =     -0.917369    -0.000002    -0.150305    -1.067675
	  116 D(15,2,1,19)    =      0.052009    -0.000000    -0.146867    -0.094858
	  117 D(17,9,8,18)    =     -1.126162     0.000000    -0.189155    -1.315318
	 ---------------------------------------------------------------------------
	Successfully symmetrized geometry.
	The BAD_STEP_EXCEPTion handler:
	Step is far too large.

	Dynamic level is 1.
	Consecutive backsteps is 0.
	The INTCO_EXCEPTion handler:
	Too many bad steps.
	Dynamic level is 1.
	exc.g_really_quit() is 0.
	Raising dynamic level to 2. ~
	Removing binary optimization data file.

    Structure for next step:
    Molecular point group: c1
    Full point group: C1

    Geometry (in Angstrom), charge = 0, multiplicity = 1:

    N           -1.034770874097    -1.495281539267     0.148328068495
    C           -2.338176874097    -1.160932539267     0.406384068495
    C           -2.648153874097     0.370069460733     0.498691068495
    F           -3.605904874097     0.655290460733    -0.448624931505
    F           -3.187644874097     0.608549460733     1.742896068495
    C           -1.450916874097     1.362105460733     0.291758068495
    C           -0.115909874097     0.780026460733     0.022580068495
    C            1.000434125903     1.623251460733    -0.168150931505
    C            2.271634125903     1.093930460733    -0.426926931505
    C            2.463220125903    -0.313362539267    -0.503442931505
    C            1.345227125903    -1.153864539267    -0.302054931505
    C            0.067103125903    -0.628191539267    -0.044477931505
    S            4.002797125903    -1.161239539267    -0.783095931505
    C            5.325870125903     0.082258460733    -0.825256931505
    O           -3.183322874097    -2.032629539267     0.549813068495
    O           -1.628630874097     2.575052460733     0.353087068495
    H            3.091111125903     1.792657460733    -0.584833931505
    H            0.847501125903     2.701486460733    -0.109528931505
    H           -0.899724874097    -2.495956539267     0.099516068495
    H            1.475541125903    -2.236563539267    -0.342370931505
    H            5.530478125903     0.353827460733    -1.865435931505
    H            5.062400125903     0.961796460733    -0.233444931505
    H            6.227418125903    -0.367466539267    -0.397014931505

gradient() will perform analytic gradient computation.

*** tstart() called on cpu-spot-dy-c5n2xlarge-1
*** at Tue Jun 22 05:22:52 2021

   => Loading Basis Set <=

    Name: 6-31+G*
    Role: ORBITAL
    Keyword: BASIS
    atoms 1             entry N          line   138 file /fsx/users/francis/anaconda3/envs/poltype-dev/share/psi4/basis/6-31pgs.gbs 
    atoms 2-3, 6-12, 14 entry C          line   119 file /fsx/users/francis/anaconda3/envs/poltype-dev/share/psi4/basis/6-31pgs.gbs 
    atoms 4-5           entry F          line   176 file /fsx/users/francis/anaconda3/envs/poltype-dev/share/psi4/basis/6-31pgs.gbs 
    atoms 13            entry S          line   344 file /fsx/users/francis/anaconda3/envs/poltype-dev/share/psi4/basis/6-31pgs.gbs 
    atoms 15-16         entry O          line   157 file /fsx/users/francis/anaconda3/envs/poltype-dev/share/psi4/basis/6-31pgs.gbs 
    atoms 17-23         entry H          line    46 file /fsx/users/francis/anaconda3/envs/poltype-dev/share/psi4/basis/6-31pgs.gbs 


         ---------------------------------------------------------
                                   SCF
               by Justin Turney, Rob Parrish, Andy Simmonett
                          and Daniel G. A. Smith
                              RKS Reference
                        8 Threads,  15258 MiB Core
         ---------------------------------------------------------

  ==> Geometry <==

    Molecular point group: c1
    Full point group: C1

    Geometry (in Angstrom), charge = 0, multiplicity = 1:

       Center              X                  Y                   Z               Mass       
    ------------   -----------------  -----------------  -----------------  -----------------
         N           -1.034770874097    -1.495281539267     0.148328068495    14.003074004430
         C           -2.338176874097    -1.160932539267     0.406384068495    12.000000000000
         C           -2.648153874097     0.370069460733     0.498691068495    12.000000000000
         F           -3.605904874097     0.655290460733    -0.448624931505    18.998403162730
         F           -3.187644874097     0.608549460733     1.742896068495    18.998403162730
         C           -1.450916874097     1.362105460733     0.291758068495    12.000000000000
         C           -0.115909874097     0.780026460733     0.022580068495    12.000000000000
         C            1.000434125903     1.623251460733    -0.168150931505    12.000000000000
         C            2.271634125903     1.093930460733    -0.426926931505    12.000000000000
         C            2.463220125903    -0.313362539267    -0.503442931505    12.000000000000
         C            1.345227125903    -1.153864539267    -0.302054931505    12.000000000000
         C            0.067103125903    -0.628191539267    -0.044477931505    12.000000000000
         S            4.002797125903    -1.161239539267    -0.783095931505    31.972071174400
         C            5.325870125903     0.082258460733    -0.825256931505    12.000000000000
         O           -3.183322874097    -2.032629539267     0.549813068495    15.994914619570
         O           -1.628630874097     2.575052460733     0.353087068495    15.994914619570
         H            3.091111125903     1.792657460733    -0.584833931505     1.007825032230
         H            0.847501125903     2.701486460733    -0.109528931505     1.007825032230
         H           -0.899724874097    -2.495956539267     0.099516068495     1.007825032230
         H            1.475541125903    -2.236563539267    -0.342370931505     1.007825032230
         H            5.530478125903     0.353827460733    -1.865435931505     1.007825032230
         H            5.062400125903     0.961796460733    -0.233444931505     1.007825032230
         H            6.227418125903    -0.367466539267    -0.397014931505     1.007825032230

  Running in c1 symmetry.

  Rotational constants: A =      0.03854  B =      0.00806  C =      0.00694 [cm^-1]
  Rotational constants: A =   1155.46231  B =    241.74721  C =    208.04244 [MHz]
  Nuclear repulsion = 1173.442092200612706

  Charge       = 0
  Multiplicity = 1
  Electrons    = 124
  Nalpha       = 62
  Nbeta        = 62

  ==> Algorithm <==

  SCF Algorithm Type is DF.
  DIIS enabled.
  MOM disabled.
  Fractional occupation disabled.
  Guess Type is READ.
  Energy threshold   = 1.00e-08
  Density threshold  = 1.00e-08
  Integral threshold = 0.00e+00

  ==> Primary Basis <==

  Basis Set: 6-31+G*
    Blend: 6-31+G*
    Number of shells: 144
    Number of basis function: 322
    Number of Cartesian functions: 322
    Spherical Harmonics?: false
    Max angular momentum: 2

  ==> DFT Potential <==

   => Composite Functional: WB97X-D <= 

    wB97X-D Hyb-GGA Exchange-Correlation Functional

    J.-D. Chai and M. Head-Gordon, Phys. Chem. Chem. Phys. 10, 6615 (2008)

    Deriv               =              1
    GGA                 =           TRUE
    Meta                =          FALSE

    Exchange Hybrid     =           TRUE
    MP2 Hybrid          =          FALSE

   => Exchange-Correlation Functionals <=

    1.0000   wB97D range-separated functional

   => Exact (HF) Exchange <=

    0.7780            HF,LR [omega = 0.2000]
    0.2220               HF 

   => Molecular Quadrature <=

    Radial Scheme          =       TREUTLER
    Pruning Scheme         =           FLAT
    Nuclear Scheme         =       TREUTLER

    BS radius alpha        =              1
    Pruning alpha          =              1
    Radial Points          =             75
    Spherical Points       =            302
    Total Points           =         520854
    Total Blocks           =           3887
    Max Points             =            256
    Max Functions          =            288

   => WB97X-D: Empirical Dispersion <=

    Chai and Head-Gordon Dispersion Correction
    Chai, J.-D.; Head-Gordon, M. (2010), J. Chem. Phys., 132: 6615-6620

        s6 =       1.000000

   => Loading Basis Set <=

    Name: (6-31+G* AUX)
    Role: JKFIT
    Keyword: DF_BASIS_SCF
    atoms 1             entry N          line   252 file /fsx/users/francis/anaconda3/envs/poltype-dev/share/psi4/basis/heavy-aug-cc-pvdz-jkfit.gbs 
    atoms 2-3, 6-12, 14 entry C          line   194 file /fsx/users/francis/anaconda3/envs/poltype-dev/share/psi4/basis/heavy-aug-cc-pvdz-jkfit.gbs 
    atoms 4-5           entry F          line   368 file /fsx/users/francis/anaconda3/envs/poltype-dev/share/psi4/basis/heavy-aug-cc-pvdz-jkfit.gbs 
    atoms 13            entry S          line   730 file /fsx/users/francis/anaconda3/envs/poltype-dev/share/psi4/basis/heavy-aug-cc-pvdz-jkfit.gbs 
    atoms 15-16         entry O          line   310 file /fsx/users/francis/anaconda3/envs/poltype-dev/share/psi4/basis/heavy-aug-cc-pvdz-jkfit.gbs 
    atoms 17-23         entry H          line   116 file /fsx/users/francis/anaconda3/envs/poltype-dev/share/psi4/basis/heavy-aug-cc-pvdz-jkfit.gbs 

   => Loading Basis Set <=

    Name: 6-31+G*
    Role: ORBITAL
    Keyword: BASIS
    atoms 1             entry N          line   138 file /fsx/users/francis/anaconda3/envs/poltype-dev/share/psi4/basis/6-31pgs.gbs 
    atoms 2-3, 6-12, 14 entry C          line   119 file /fsx/users/francis/anaconda3/envs/poltype-dev/share/psi4/basis/6-31pgs.gbs 
    atoms 4-5           entry F          line   176 file /fsx/users/francis/anaconda3/envs/poltype-dev/share/psi4/basis/6-31pgs.gbs 
    atoms 13            entry S          line   344 file /fsx/users/francis/anaconda3/envs/poltype-dev/share/psi4/basis/6-31pgs.gbs 
    atoms 15-16         entry O          line   157 file /fsx/users/francis/anaconda3/envs/poltype-dev/share/psi4/basis/6-31pgs.gbs 
    atoms 17-23         entry H          line    46 file /fsx/users/francis/anaconda3/envs/poltype-dev/share/psi4/basis/6-31pgs.gbs 

  Reading orbitals from file 180, no projection.

  ==> Pre-Iterations <==

   -------------------------------------------------------
    Irrep   Nso     Nmo     Nalpha   Nbeta   Ndocc  Nsocc
   -------------------------------------------------------
     A        322     322       0       0       0       0
   -------------------------------------------------------
    Total     322     322      62      62      62       0
   -------------------------------------------------------

  ==> Integral Setup <==

  ==> DiskDFJK: Density-Fitted J/K Matrices <==

    J tasked:                  Yes
    K tasked:                  Yes
    wK tasked:                 Yes
    Omega:               2.000E-01
    OpenMP threads:              8
    Integrals threads:           8
    Memory [MiB]:             8464
    Algorithm:                Core
    Integral Cache:           NONE
    Schwarz Cutoff:          1E-12
    Fitting Condition:       1E-10

   => Auxiliary Basis Set <=

  Basis Set: (6-31+G* AUX)
    Blend: HEAVY-AUG-CC-PVDZ-JKFIT
    Number of shells: 523
    Number of basis function: 1840
    Number of Cartesian functions: 1840
    Spherical Harmonics?: false
    Max angular momentum: 3

  Cached 100.0% of DFT collocation blocks in 2.910 [GiB].

  Minimum eigenvalue in the overlap matrix is 4.8748318204E-07.
  Using Symmetric Orthogonalization.

  SCF Guess: Orbitals guess was supplied from a previous computation.

  ==> Iterations <==

                           Total Energy        Delta E     RMS |[F,P]|

   @DF-RKS iter   0: -1188.11365086949104   -1.18811e+03   3.05614e-07 
   @DF-RKS iter   1: -1188.11365087887680   -9.38576e-09   2.72886e-08 DIIS
   @DF-RKS iter   2: -1188.11365087896570   -8.89031e-11   4.11974e-09 DIIS
  Energy and wave function converged.


  ==> Post-Iterations <==

    Orbital Energies [Eh]
    ---------------------

    Doubly Occupied:                                                      

       1A    -89.085988     2A    -24.872891     3A    -24.872880  
       4A    -19.304602     5A    -19.293247     6A    -14.542197  
       7A    -10.510067     8A    -10.458035     9A    -10.435003  
      10A    -10.410958    11A    -10.394480    12A    -10.358739  
      13A    -10.355258    14A    -10.352535    15A    -10.352464  
      16A    -10.347298    17A     -8.103338    18A     -6.054117  
      19A     -6.049486    20A     -6.043504    21A     -1.381237  
      22A     -1.324914    23A     -1.188513    24A     -1.174317  
      25A     -1.091517    26A     -0.999027    27A     -0.939941  
      28A     -0.903677    29A     -0.885806    30A     -0.869224  
      31A     -0.798108    32A     -0.763328    33A     -0.750232  
      34A     -0.744188    35A     -0.693058    36A     -0.678336  
      37A     -0.665481    38A     -0.644015    39A     -0.627974  
      40A     -0.589342    41A     -0.583917    42A     -0.564310  
      43A     -0.561832    44A     -0.555783    45A     -0.553713  
      46A     -0.551122    47A     -0.548137    48A     -0.535054  
      49A     -0.521500    50A     -0.516010    51A     -0.506399  
      52A     -0.498737    53A     -0.490613    54A     -0.485723  
      55A     -0.474507    56A     -0.438999    57A     -0.429813  
      58A     -0.395569    59A     -0.394861    60A     -0.367249  
      61A     -0.339562    62A     -0.317938  

    Virtual:                                                              

      63A     -0.046185    64A      0.011574    65A      0.039308  
      66A      0.047438    67A      0.052016    68A      0.065126  
      69A      0.066580    70A      0.074725    71A      0.080590  
      72A      0.084821    73A      0.092505    74A      0.095348  
      75A      0.105101    76A      0.111269    77A      0.114722  
      78A      0.117449    79A      0.117817    80A      0.131165  
      81A      0.137278    82A      0.138661    83A      0.143634  
      84A      0.149299    85A      0.153983    86A      0.163396  
      87A      0.172278    88A      0.174954    89A      0.175898  
      90A      0.180215    91A      0.184042    92A      0.189525  
      93A      0.192715    94A      0.197535    95A      0.203042  
      96A      0.204492    97A      0.213781    98A      0.217611  
      99A      0.219413   100A      0.226877   101A      0.233270  
     102A      0.235985   103A      0.240922   104A      0.244018  
     105A      0.246787   106A      0.250923   107A      0.257306  
     108A      0.261598   109A      0.266175   110A      0.271031  
     111A      0.276464   112A      0.284584   113A      0.287723  
     114A      0.290903   115A      0.300225   116A      0.301215  
     117A      0.312101   118A      0.314668   119A      0.321528  
     120A      0.326877   121A      0.329908   122A      0.330245  
     123A      0.336485   124A      0.342164   125A      0.355084  
     126A      0.360338   127A      0.362400   128A      0.373005  
     129A      0.378261   130A      0.383448   131A      0.392118  
     132A      0.395699   133A      0.397879   134A      0.401895  
     135A      0.411446   136A      0.416543   137A      0.424573  
     138A      0.434321   139A      0.444377   140A      0.448550  
     141A      0.458054   142A      0.468978   143A      0.477150  
     144A      0.481755   145A      0.503290   146A      0.512095  
     147A      0.526045   148A      0.528483   149A      0.536311  
     150A      0.554968   151A      0.575343   152A      0.580799  
     153A      0.585431   154A      0.595923   155A      0.605864  
     156A      0.627033   157A      0.656026   158A      0.662110  
     159A      0.672718   160A      0.695146   161A      0.728279  
     162A      0.742862   163A      0.752971   164A      0.762158  
     165A      0.769410   166A      0.771265   167A      0.788576  
     168A      0.797606   169A      0.804115   170A      0.818064  
     171A      0.822210   172A      0.843278   173A      0.861607  
     174A      0.877755   175A      0.882967   176A      0.885406  
     177A      0.899297   178A      0.916324   179A      0.926484  
     180A      0.930682   181A      0.963626   182A      0.966413  
     183A      0.981154   184A      0.983298   185A      1.016535  
     186A      1.021029   187A      1.043269   188A      1.057287  
     189A      1.066338   190A      1.079190   191A      1.083838  
     192A      1.094483   193A      1.116718   194A      1.152619  
     195A      1.152854   196A      1.171769   197A      1.201487  
     198A      1.205037   199A      1.215055   200A      1.216430  
     201A      1.226192   202A      1.231479   203A      1.268895  
     204A      1.282328   205A      1.284107   206A      1.321248  
     207A      1.323240   208A      1.335287   209A      1.344589  
     210A      1.385800   211A      1.403075   212A      1.407435  
     213A      1.414492   214A      1.418790   215A      1.440894  
     216A      1.445992   217A      1.451876   218A      1.465123  
     219A      1.467116   220A      1.484360   221A      1.503375  
     222A      1.512159   223A      1.524422   224A      1.533441  
     225A      1.547110   226A      1.592651   227A      1.620971  
     228A      1.649927   229A      1.664055   230A      1.670554  
     231A      1.709547   232A      1.750042   233A      1.753485  
     234A      1.758811   235A      1.759704   236A      1.762568  
     237A      1.769590   238A      1.780652   239A      1.788391  
     240A      1.821392   241A      1.838801   242A      1.864691  
     243A      1.874164   244A      1.897086   245A      1.899376  
     246A      1.910201   247A      1.919445   248A      1.946478  
     249A      1.963356   250A      1.966697   251A      1.971556  
     252A      2.004426   253A      2.038911   254A      2.049366  
     255A      2.057758   256A      2.058043   257A      2.081393  
     258A      2.090563   259A      2.099455   260A      2.112530  
     261A      2.146048   262A      2.152605   263A      2.167247  
     264A      2.200389   265A      2.205874   266A      2.210970  
     267A      2.248603   268A      2.257731   269A      2.263820  
     270A      2.268350   271A      2.302696   272A      2.308143  
     273A      2.318202   274A      2.343743   275A      2.348207  
     276A      2.367525   277A      2.380760   278A      2.403104  
     279A      2.462603   280A      2.465398   281A      2.510841  
     282A      2.514505   283A      2.569203   284A      2.625938  
     285A      2.657142   286A      2.676360   287A      2.704712  
     288A      2.730561   289A      2.736529   290A      2.769996  
     291A      2.775400   292A      2.827550   293A      2.828535  
     294A      2.849890   295A      2.898782   296A      2.948159  
     297A      2.960014   298A      3.030563   299A      3.124454  
     300A      3.155241   301A      3.210693   302A      3.233546  
     303A      3.338512   304A      3.379414   305A      3.463088  
     306A      3.487256   307A      4.035096   308A      4.279116  
     309A      4.309829   310A      4.332065   311A      4.361083  
     312A      4.377372   313A      4.416074   314A      4.469851  
     315A      4.486352   316A      4.521544   317A      4.580714  
     318A      4.780214   319A      4.835674   320A      5.117424  
     321A      5.696109   322A      7.146392  

    Final Occupation by Irrep:
              A 
    DOCC [    62 ]

  @DF-RKS Final Energy: -1188.11365087896570

   => Energetics <=

    Nuclear Repulsion Energy =           1173.4420922006127057
    One-Electron Energy =               -3960.9693509004719090
    Two-Electron Energy =                1688.8656091195739464
    DFT Exchange-Correlation Energy =     -89.4385937854435156
    Empirical Dispersion Energy =          -0.0134075132371740
    VV10 Nonlocal Energy =                  0.0000000000000000
    Total Energy =                      -1188.1136508789657000

Computation Completed


Properties will be evaluated at   0.000000,   0.000000,   0.000000 [a0]

Properties computed using the SCF density matrix

  Nuclear Dipole Moment: [e a0]
     X:    26.4949      Y:    -0.5505      Z:    -4.4562

  Electronic Dipole Moment: [e a0]
     X:   -23.2188      Y:     0.1984      Z:     3.9042

  Dipole Moment: [e a0]
     X:     3.2761      Y:    -0.3521      Z:    -0.5520     Total:     3.3408

  Dipole Moment: [D]
     X:     8.3269      Y:    -0.8950      Z:    -1.4029     Total:     8.4916


*** tstop() called on cpu-spot-dy-c5n2xlarge-1 at Tue Jun 22 05:23:15 2021
Module time:
	user time   =     156.33 seconds =       2.61 minutes
	system time =       2.69 seconds =       0.04 minutes
	total time  =         23 seconds =       0.38 minutes
Total time:
	user time   =     881.29 seconds =      14.69 minutes
	system time =      16.90 seconds =       0.28 minutes
	total time  =        124 seconds =       2.07 minutes

*** tstart() called on cpu-spot-dy-c5n2xlarge-1
*** at Tue Jun 22 05:23:15 2021


         ------------------------------------------------------------
                                   SCF GRAD                          
                          Rob Parrish, Justin Turney,                
                       Andy Simmonett, and Alex Sokolov              
         ------------------------------------------------------------

  ==> Geometry <==

    Molecular point group: c1
    Full point group: C1

    Geometry (in Angstrom), charge = 0, multiplicity = 1:

       Center              X                  Y                   Z               Mass       
    ------------   -----------------  -----------------  -----------------  -----------------
         N           -1.034770874097    -1.495281539267     0.148328068495    14.003074004430
         C           -2.338176874097    -1.160932539267     0.406384068495    12.000000000000
         C           -2.648153874097     0.370069460733     0.498691068495    12.000000000000
         F           -3.605904874097     0.655290460733    -0.448624931505    18.998403162730
         F           -3.187644874097     0.608549460733     1.742896068495    18.998403162730
         C           -1.450916874097     1.362105460733     0.291758068495    12.000000000000
         C           -0.115909874097     0.780026460733     0.022580068495    12.000000000000
         C            1.000434125903     1.623251460733    -0.168150931505    12.000000000000
         C            2.271634125903     1.093930460733    -0.426926931505    12.000000000000
         C            2.463220125903    -0.313362539267    -0.503442931505    12.000000000000
         C            1.345227125903    -1.153864539267    -0.302054931505    12.000000000000
         C            0.067103125903    -0.628191539267    -0.044477931505    12.000000000000
         S            4.002797125903    -1.161239539267    -0.783095931505    31.972071174400
         C            5.325870125903     0.082258460733    -0.825256931505    12.000000000000
         O           -3.183322874097    -2.032629539267     0.549813068495    15.994914619570
         O           -1.628630874097     2.575052460733     0.353087068495    15.994914619570
         H            3.091111125903     1.792657460733    -0.584833931505     1.007825032230
         H            0.847501125903     2.701486460733    -0.109528931505     1.007825032230
         H           -0.899724874097    -2.495956539267     0.099516068495     1.007825032230
         H            1.475541125903    -2.236563539267    -0.342370931505     1.007825032230
         H            5.530478125903     0.353827460733    -1.865435931505     1.007825032230
         H            5.062400125903     0.961796460733    -0.233444931505     1.007825032230
         H            6.227418125903    -0.367466539267    -0.397014931505     1.007825032230

  Nuclear repulsion = 1173.442092200612706

  ==> Basis Set <==

  Basis Set: 6-31+G*
    Blend: 6-31+G*
    Number of shells: 144
    Number of basis function: 322
    Number of Cartesian functions: 322
    Spherical Harmonics?: false
    Max angular momentum: 2

  ==> DFJKGrad: Density-Fitted SCF Gradients <==

    Gradient:                    1
    J tasked:                  Yes
    K tasked:                  Yes
    wK tasked:                 Yes
    Omega:               2.000E-01
    OpenMP threads:              8
    Integrals threads:           8
    Memory [MiB]:            11444
    Schwarz Cutoff:          0E+00
    Fitting Condition:       1E-10

   => Auxiliary Basis Set <=

  Basis Set: (6-31+G* AUX)
    Blend: HEAVY-AUG-CC-PVDZ-JKFIT
    Number of shells: 523
    Number of basis function: 1840
    Number of Cartesian functions: 1840
    Spherical Harmonics?: false
    Max angular momentum: 3

  ==> DFT Potential <==

   => Composite Functional: WB97X-D <= 

    wB97X-D Hyb-GGA Exchange-Correlation Functional

    J.-D. Chai and M. Head-Gordon, Phys. Chem. Chem. Phys. 10, 6615 (2008)

    Deriv               =              1
    GGA                 =           TRUE
    Meta                =          FALSE

    Exchange Hybrid     =           TRUE
    MP2 Hybrid          =          FALSE

   => Exchange-Correlation Functionals <=

    1.0000   wB97D range-separated functional

   => Exact (HF) Exchange <=

    0.7780            HF,LR [omega = 0.2000]
    0.2220               HF 

   => Molecular Quadrature <=

    Radial Scheme          =       TREUTLER
    Pruning Scheme         =           FLAT
    Nuclear Scheme         =       TREUTLER

    BS radius alpha        =              1
    Pruning alpha          =              1
    Radial Points          =             75
    Spherical Points       =            302
    Total Points           =         520854
    Total Blocks           =           3887
    Max Points             =            256
    Max Functions          =            288


  -Total Gradient:
     Atom            X                  Y                   Z
    ------   -----------------  -----------------  -----------------
       1       -0.009577098562    -0.010914665828     0.001508577634
       2        0.007947811436     0.011477116687    -0.001326405043
       3        0.012449387898    -0.003962812069    -0.002507941162
       4       -0.012481298008     0.003797477470    -0.013050689090
       5       -0.006781946628     0.003192291191     0.016891526971
       6       -0.008831399233    -0.021718678813     0.001219601830
       7       -0.000228469783     0.007405718843    -0.000337142313
       8       -0.003530592425     0.013760334795     0.001003650056
       9        0.006301652094     0.003542186804     0.000634878341
      10        0.008889145521    -0.010132028492    -0.005349431228
      11        0.004116615805    -0.002446969947    -0.000149422758
      12       -0.002078592270    -0.006049572663     0.001230556760
      13        0.006297807738     0.002300871089    -0.003198325408
      14        0.003494831239    -0.002726765358     0.004210754274
      15       -0.008652600462    -0.021725731461     0.001192549214
      16        0.005031403758     0.029202484778    -0.000316746210
      17        0.000785877839     0.003558586479    -0.000085198331
      18       -0.000718219781     0.003885680786     0.000487104933
      19       -0.004060330790     0.001630827451     0.000828759584
      20        0.000287105178    -0.002494541597    -0.000170703678
      21        0.000249674132    -0.003625700263    -0.002733500722
      22       -0.001388574243     0.000170230300     0.000309823387
      23        0.003315097260     0.001426482884    -0.000325478288


*** tstop() called on cpu-spot-dy-c5n2xlarge-1 at Tue Jun 22 05:23:38 2021
Module time:
	user time   =     147.88 seconds =       2.46 minutes
	system time =       3.71 seconds =       0.06 minutes
	total time  =         23 seconds =       0.38 minutes
Total time:
	user time   =    1029.17 seconds =      17.15 minutes
	system time =      20.61 seconds =       0.34 minutes
	total time  =        147 seconds =       2.45 minutes

			-----------------------------------------
			 OPTKING 2.0: for geometry optimizations 
			  - R.A. King,  Bethel University        
			-----------------------------------------
	At level 2: Red. Int., RFO, backsteps, smaller trust.

	Internal coordinates to be generated automatically.
	Detected frag 1 with atoms:  1 2 3 4 5 6 7 8 9 10 11 12 13 14 15 16 17 18 19 20
	 21 22 23
	---Fragment 1 Bond Connectivity---
	 1 : 2 12 19
	 2 : 1 3 15
	 3 : 2 4 5 6
	 4 : 3
	 5 : 3
	 6 : 3 7 16
	 7 : 6 8 12
	 8 : 7 9 18
	 9 : 8 10 17
	 10 : 9 11 13
	 11 : 10 12 20
	 12 : 1 7 11
	 13 : 10 14
	 14 : 13 21 22 23
	 15 : 2
	 16 : 6
	 17 : 9
	 18 : 8
	 19 : 1
	 20 : 11
	 21 : 14
	 22 : 14
	 23 : 14

	Assuming in current code that numbering for constraints corresponds to unified fragment.
	Frozen dihedral atom list: 
	    11    10    13    14
	     9    10    13    14
	    21    14    13    10
	---Fragment 1 Geometry and Gradient---
	 N          -1.9554335546       -2.8256725897        0.2802994262
	 C          -4.4185139249       -2.1938445493        0.7679545912
	 C          -5.0042855601        0.6993299282        0.9423895407
	 F          -6.8141726465        1.2383195034       -0.8477782536
	 F          -6.0237757973        1.1499918146        3.2935962346
	 C          -2.7418355228        2.5740062748        0.5513428443
	 C          -0.2190379173        1.4740363814        0.0426701453
	 C           1.8905465045        3.0675006935       -0.3177592083
	 C           4.2927663552        2.0672289711       -0.8067749761
	 C           4.6548114247       -0.5921693772       -0.9513692603
	 C           2.5421108445       -2.1804879651       -0.5708010954
	 C           0.1268065301       -1.1871099635       -0.0840511092
	 S           7.5641903037       -2.1944246953       -1.4798368405
	 C          10.0644359177        0.1554459623       -1.5595095837
	 O          -6.0156084009       -3.8411131437        1.0389961197
	 O          -3.0776663115        4.8661439095        0.6672378579
	 H           5.8413534513        3.3876316375       -1.1051759594
	 H           1.6015450190        5.1050695424       -0.2069796834
	 H          -1.7002336003       -4.7166742803        0.1880581145
	 H           2.7883686148       -4.2264925514       -0.6469872939
	 H          10.4510890008        0.6686369965       -3.5251630151
	 H           9.5665497754        1.8175318992       -0.4411469859
	 H          11.7681147267       -0.6944111195       -0.7502494883
	            -0.0095770986       -0.0109146658        0.0015085776
[...]
	   17 R(10,11)        =      1.399516    -0.000470     0.000059     1.399575
	   18 R(10,13)        =      1.763268     0.000227     0.000049     1.763318
	   19 R(11,12)        =      1.390422     0.000162     0.000108     1.390530
	   20 R(11,20)        =      1.087538    -0.000387    -0.000060     1.087479
	   21 R(13,14)        =      1.812635     0.000865     0.000525     1.813160
	   22 R(14,21)        =      1.091723    -0.000108    -0.000005     1.091718
	   23 R(14,22)        =      1.090153     0.000121     0.000053     1.090206
	   24 R(14,23)        =      1.093124     0.000084    -0.000019     1.093105
	   25 B(1,2,3)        =    116.001693    -0.000001    -0.014799   115.986894
	   26 B(1,2,15)       =    122.872775     0.000001     0.028474   122.901250
	   27 B(1,12,7)       =    120.819511     0.000004     0.011005   120.830516
	   28 B(1,12,11)      =    118.989397     0.000001     0.018057   119.007454
	   29 B(2,1,12)       =    127.099319    -0.000001    -0.020099   127.079221
	   30 B(2,1,19)       =    114.506367    -0.000003    -0.007135   114.499232
	   31 B(2,3,4)        =    107.242657     0.000000    -0.012392   107.230265
	   32 B(2,3,5)        =    107.269451    -0.000000    -0.014821   107.254630
	   33 B(2,3,6)        =    117.917235    -0.000001     0.027774   117.945009
	   34 B(3,2,15)       =    121.125523     0.000001    -0.013675   121.111848
	   35 B(3,6,7)        =    117.107389    -0.000003    -0.043585   117.063804
	   36 B(3,6,16)       =    118.133385     0.000001     0.049405   118.182790
	   37 B(4,3,5)        =    108.280360    -0.000000     0.014430   108.294790
	   38 B(4,3,6)        =    107.916646     0.000000    -0.009627   107.907019
	   39 B(5,3,6)        =    107.897062     0.000001    -0.005115   107.891947
	   40 B(6,7,8)        =    120.303958    -0.000008    -0.090975   120.212983
	   41 B(6,7,12)       =    121.053706     0.000003     0.039537   121.093243
	   42 B(7,6,16)       =    124.759221     0.000003    -0.005825   124.753396
	   43 B(7,8,9)        =    121.574801    -0.000002    -0.028463   121.546338
	   44 B(7,8,18)       =    117.995980    -0.000000    -0.002708   117.993272
	   45 B(7,12,11)      =    120.190288    -0.000004    -0.029173   120.161115
	   46 B(8,7,12)       =    118.641837     0.000006     0.051332   118.693169
	   47 B(8,9,10)       =    119.572472    -0.000004    -0.001196   119.571276
	   48 B(8,9,17)       =    119.035969     0.000004     0.018210   119.054179
	   49 B(9,8,18)       =    120.428582     0.000002     0.031167   120.459750
	   50 B(9,10,11)      =    119.454702     0.000006     0.029026   119.483728
	   51 B(9,10,13)      =    125.333994    -0.000003    -0.087919   125.246075
	   52 B(10,9,17)      =    121.365297    -0.000000    -0.016053   121.349244
	   53 B(10,11,12)     =    120.561676    -0.000001    -0.021139   120.540537
	   54 B(10,11,20)     =    119.728656     0.000003     0.021858   119.750514
	   55 B(10,13,14)     =    105.377648     0.000003     0.034430   105.412078
	   56 B(11,10,13)     =    115.182124    -0.000002     0.058867   115.240992
	   57 B(12,1,19)      =    118.393856     0.000004     0.027349   118.421205
	   58 B(12,11,20)     =    119.709471    -0.000001    -0.000774   119.708697
	   59 B(13,14,21)     =    111.612718    -0.000002    -0.024747   111.587971
	   60 B(13,14,22)     =    112.061515     0.000003     0.054688   112.116203
	   61 B(13,14,23)     =    105.670228    -0.000001    -0.018344   105.651884
	   62 B(21,14,22)     =    111.570116    -0.000001    -0.088693   111.481424
	   63 B(21,14,23)     =    107.966255     0.000001     0.073330   108.039585
	   64 B(22,14,23)     =    107.616033     0.000000     0.011265   107.627298
	   65 D(1,2,3,4)      =    121.843551    -0.000000    -0.027303   121.816248
	   66 D(1,2,3,5)      =   -122.025819    -0.000000    -0.024126  -122.049945
	   67 D(1,2,3,6)      =     -0.093187    -0.000000    -0.023706    -0.116893
	   68 D(1,12,7,6)     =     -0.394399    -0.000000    -0.031212    -0.425611
	   69 D(1,12,7,8)     =    179.861834    -0.000000    -0.005122   179.856712
	   70 D(1,12,11,10)   =    179.727604     0.000000     0.023557   179.751161
	   71 D(1,12,11,20)   =     -0.434622    -0.000000     0.002864    -0.431758
	   72 D(2,1,12,7)     =      0.384844     0.000000     0.013565     0.398409
	   73 D(2,1,12,11)    =   -179.940658    -0.000000    -0.008261  -179.948919
	   74 D(2,3,6,7)      =      0.065048     0.000000     0.007950     0.072998
	   75 D(2,3,6,16)     =   -179.960165     0.000000    -0.001691  -179.961856
	   76 D(3,2,1,12)     =     -0.128088     0.000000     0.014193    -0.113895
	   77 D(3,2,1,19)     =   -179.875925    -0.000000    -0.019793  -179.895718
	   78 D(3,6,7,8)      =    179.914823     0.000000    -0.006838   179.907985
	   79 D(3,6,7,12)     =      0.175292     0.000000     0.019278     0.194570
	   80 D(4,3,2,15)     =    -58.123814    -0.000000    -0.028315   -58.152129
	   81 D(4,3,6,7)      =   -121.526805     0.000000     0.012787  -121.514017
	   82 D(4,3,6,16)     =     58.447983     0.000000     0.003147    58.451129
	   83 D(5,3,2,15)     =     58.006816    -0.000000    -0.025138    57.981678
	   84 D(5,3,6,7)      =    121.676555     0.000000     0.003575   121.680131
	   85 D(5,3,6,16)     =    -58.348658     0.000000    -0.006065   -58.354723
	   86 D(6,3,2,15)     =    179.939448    -0.000000    -0.024718   179.914731
	   87 D(6,7,8,9)      =   -179.745205     0.000000     0.026572  -179.718633
	   88 D(6,7,8,18)     =     -0.034359    -0.000000     0.025664    -0.008694
	   89 D(6,7,12,11)    =    179.935001     0.000000    -0.009290   179.925710
	   90 D(7,8,9,10)     =      0.207398    -0.000000    -0.037211     0.170188
	   91 D(7,8,9,17)     =    178.369190    -0.000000    -0.003570   178.365620
	   92 D(7,12,1,19)    =   -179.875981     0.000000     0.048648  -179.827333
	   93 D(7,12,11,10)   =     -0.595798    -0.000000     0.002013    -0.593785
	   94 D(7,12,11,20)   =    179.241975    -0.000000    -0.018680   179.223295
	   95 D(8,7,6,16)     =     -0.058113     0.000000     0.003490    -0.054623
	   96 D(8,7,12,11)    =      0.191234     0.000000     0.016800     0.208034
	   97 D(8,9,10,11)    =     -0.601795     0.000000     0.055020    -0.546775
	   98 D(8,9,10,13)    =   -178.537879     0.000000     0.054612  -178.483267
	   99 D(9,8,7,12)     =      0.000000    -0.000000     0.001603     0.001603
	  100 D(9,10,11,12)   =      0.799591    -0.000000    -0.037822     0.761769
	  101 D(9,10,11,20)   =   -179.038152     0.000000    -0.017084  -179.055235
	  102 *D(9,10,13,14)  =      4.418063    -0.000000     0.000000     4.418063
	  103 D(10,9,8,18)    =   -179.496500    -0.000000    -0.036179  -179.532678
	  104 *D(10,13,14,21) =    -95.869146     0.000000     0.000000   -95.869146
	  105 D(10,13,14,22)  =     30.092701    -0.000000    -0.094934    29.997767
	  106 D(10,13,14,23)  =    147.018878     0.000000    -0.063922   146.954957
	  107 D(11,10,9,17)   =   -178.719548     0.000000     0.019930  -178.699617
	  108 *D(11,10,13,14) =   -173.596087    -0.000000    -0.000000  -173.596087
	  109 D(11,12,1,19)   =     -0.201483    -0.000000     0.026822    -0.174661
	  110 D(12,1,2,15)    =    179.838649     0.000000     0.015210   179.853858
	  111 D(12,7,6,16)    =   -179.797644     0.000000     0.029606  -179.768038
	  112 D(12,7,8,18)    =    179.711390    -0.000000     0.000151   179.711541
	  113 D(12,11,10,13)  =    178.939107    -0.000000    -0.040378   178.898729
	  114 D(13,10,9,17)   =      3.344369     0.000000     0.019523     3.363891
	  115 D(13,10,11,20)  =     -0.898636     0.000000    -0.019640    -0.918275
	  116 D(15,2,1,19)    =      0.090812    -0.000000    -0.018777     0.072035
	  117 D(17,9,8,18)    =     -1.334708    -0.000000    -0.002538    -1.337246
	  118 R(1,X)          =     -1.015822    -0.000446    -0.001437    -1.017259
	  119 R(1,Y)          =     -1.490143    -0.000097    -0.000983    -1.491126
	  120 R(1,Z)          =      0.149085    -0.000082    -0.000084     0.149002
	  121 R(2,X)          =     -2.314458    -0.000552    -0.001206    -2.315664
	  122 R(2,Y)          =     -1.139685    -0.000185     0.000014    -1.139671
	  123 R(2,Z)          =      0.406536     0.000147     0.000457     0.406993
	  124 R(3,X)          =     -2.602837    -0.000311     0.000220    -2.602616
	  125 R(3,Y)          =      0.377905     0.000206     0.000703     0.378608
	  126 R(3,Z)          =      0.494302     0.000181     0.000296     0.494597
	  127 R(4,X)          =     -3.544122     0.000082     0.000605    -3.543517
	  128 R(4,Y)          =      0.662650     0.000299     0.001217     0.663867
	  129 R(4,Z)          =     -0.438643     0.000574     0.000246    -0.438397
	  130 R(5,X)          =     -3.132200    -0.000044     0.000568    -3.131632
	  131 R(5,Y)          =      0.616730     0.000151     0.001018     0.617748
	  132 R(5,Z)          =      1.719028    -0.000281     0.000247     1.719275
	  133 R(6,X)          =     -1.414852     0.000943     0.000904    -1.413948
	  134 R(6,Y)          =      1.356883     0.000495     0.000245     1.357128
	  135 R(6,Z)          =      0.288677    -0.000101     0.000193     0.288869
	  136 R(7,X)          =     -0.100214    -0.000181    -0.000071    -0.100286
	  137 R(7,Y)          =      0.765414    -0.000741    -0.001368     0.764046
	  138 R(7,Z)          =      0.023505    -0.000098     0.000101     0.023605
	  139 R(8,X)          =      1.015746    -0.000656    -0.000423     1.015323
	  140 R(8,Y)          =      1.585239    -0.000019    -0.001058     1.584181
	  141 R(8,Z)          =     -0.173724    -0.000030     0.000046    -0.173678
	  142 R(9,X)          =      2.267351    -0.000855    -0.000897     2.266454
	  143 R(9,Y)          =      1.055382     0.000516    -0.001169     1.054213
	  144 R(9,Z)          =     -0.430819    -0.000189    -0.000655    -0.431473
	  145 R(10,X)         =      2.429037    -0.001585    -0.001170     2.427866
	  146 R(10,Y)         =     -0.337928     0.000679    -0.001038    -0.338966
	  147 R(10,Z)         =     -0.501347     0.000031    -0.000480    -0.501827
	  148 R(11,X)         =      1.322567    -0.000713    -0.001025     1.321542
	  149 R(11,Y)         =     -1.170323     0.000247    -0.001408    -1.171731
	  150 R(11,Z)         =     -0.297662    -0.000226    -0.000797    -0.298459
	  151 R(12,X)         =      0.067491    -0.001032    -0.001008     0.066483
	  152 R(12,Y)         =     -0.628512    -0.000127    -0.001286    -0.629798
	  153 R(12,Z)         =     -0.043694    -0.000123    -0.000384    -0.044078
	  154 R(13,X)         =      3.955501    -0.001205     0.000061     3.955561
	  155 R(13,Y)         =     -1.174452     0.000837     0.000997    -1.173455
	  156 R(13,Z)         =     -0.782862     0.000201    -0.000148    -0.783010
	  157 R(14,X)         =      5.217360    -0.000033    -0.000508     5.216852
	  158 R(14,Y)         =      0.126395     0.000904     0.002290     0.128685
	  159 R(14,Z)         =     -0.816841     0.000131     0.000274    -0.816567
	  160 R(15,X)         =     -3.195997    -0.000512    -0.002042    -3.198039
	  161 R(15,Y)         =     -1.953199    -0.000080     0.001167    -1.952032
	  162 R(15,Z)         =      0.558355     0.000269     0.001063     0.559419
	  163 R(16,X)         =     -1.636024     0.001553     0.002529    -1.633495
	  164 R(16,Y)         =      2.545591     0.000516     0.000481     2.546072
	  165 R(16,Z)         =      0.357279    -0.000109    -0.000070     0.357209
	  166 R(17,X)         =      3.097869    -0.000711    -0.000702     3.097167
	  167 R(17,Y)         =      1.728706    -0.000167    -0.001653     1.727052
	  168 R(17,Z)         =     -0.603498    -0.000456    -0.000830    -0.604328
	  169 R(18,X)         =      0.873351    -0.001284    -0.000708     0.872643
	  170 R(18,Y)         =      2.660613    -0.000419    -0.001156     2.659457
	  171 R(18,Z)         =     -0.124267     0.000172     0.000623    -0.123644
	  172 R(19,X)         =     -0.852953    -0.000962    -0.002218    -0.855171
	  173 R(19,Y)         =     -2.488413    -0.000276    -0.001214    -2.489627
	  174 R(19,Z)         =      0.094485    -0.000022     0.000333     0.094817
	  175 R(20,X)         =      1.445805    -0.000683    -0.001155     1.444650
	  176 R(20,Y)         =     -2.250186     0.000633    -0.001356    -2.251542
	  177 R(20,Z)         =     -0.335714    -0.000044    -0.000973    -0.336687
	  178 R(21,X)         =      5.441315    -0.000215    -0.000795     5.440519
	  179 R(21,Y)         =      0.442812     0.000316     0.002230     0.445042
	  180 R(21,Z)         =     -1.837421     0.000025     0.000198    -1.837223
	  181 R(22,X)         =      4.949785     0.000866    -0.001187     4.948598
	  182 R(22,Y)         =      0.973029     0.001542     0.003281     0.976309
	  183 R(22,Z)         =     -0.184348    -0.000133    -0.001250    -0.185598
	  184 R(23,X)         =      6.119926    -0.000281    -0.000800     6.119126
	  185 R(23,Y)         =     -0.326782     0.000204     0.002958    -0.323825
	  186 R(23,Z)         =     -0.398599     0.000129     0.001574    -0.397024
	 ---------------------------------------------------------------------------
	Successfully symmetrized geometry.

  ==> Convergence Check <==

  Measures of convergence in internal coordinates in au.
  Criteria marked as inactive (o), active & met (*), and active & unmet ( ).
  ---------------------------------------------------------------------------------------------
   Step     Total Energy     Delta E     MAX Force     RMS Force      MAX Disp      RMS Disp   
  ---------------------------------------------------------------------------------------------
    Convergence Criteria             o    2.50e-03 *    1.70e-03 *    1.00e-02 *    6.70e-03 *
  ---------------------------------------------------------------------------------------------
     14   -1188.11985541   -7.18e-06 o    1.92e-04 *    5.02e-05 *    6.20e-03 *    1.40e-03 *  ~
  ---------------------------------------------------------------------------------------------


  **** Optimization is complete! (in 14 steps) ****

  ==> Optimization Summary <==

  Measures of convergence in internal coordinates in au.
  --------------------------------------------------------------------------------------------------------------- ~
   Step         Total Energy             Delta E       MAX Force       RMS Force        MAX Disp        RMS Disp  ~
  --------------------------------------------------------------------------------------------------------------- ~
      1   -1188.113653292758  -1188.113653292758      0.01495335      0.00291749      0.03268972      0.00733245  ~
      2   -1188.116615694442     -0.002962401684      0.00734839      0.00160949      0.03355469      0.00733253  ~
      3   -1188.118186873540     -0.001571179098      0.00334370      0.00078539      0.03197199      0.00733243  ~
      4   -1188.118956951232     -0.000770077691      0.00232289      0.00049039      0.03994285      0.00733205  ~
      5   -1188.119366230852     -0.000409279620      0.00132091      0.00032253      0.03568516      0.00618965  ~
      6   -1188.119565468095     -0.000199237243      0.00101376      0.00020283      0.02348335      0.00469180  ~
      7   -1188.119655718451     -0.000090250356      0.00084234      0.00016405      0.02588335      0.00414078  ~
      8   -1188.119712290478     -0.000056572027      0.00068618      0.00012856      0.02869088      0.00414148  ~
      9   -1188.119753842853     -0.000041552375      0.00059727      0.00011220      0.02691550      0.00376663  ~
     10   -1188.119785082205     -0.000031239352      0.00042013      0.00010045      0.02556525      0.00374743  ~
     11   -1188.119812733181     -0.000027650976      0.00030571      0.00008314      0.02065158      0.00324413  ~
     12   -1188.119835526235     -0.000022793054      0.00032159      0.00007701      0.01639621      0.00285056  ~
     13   -1188.119848229601     -0.000012703366      0.00028977      0.00006764      0.01250360      0.00251366  ~
     14   -1188.119855406973     -0.000007177372      0.00019239      0.00005023      0.00620000      0.00139547  ~
  --------------------------------------------------------------------------------------------------------------- ~

	Writing optimization data to binary file.
	Final energy is  -1188.1198554069729
	Final (previous) structure:
	Cartesian Geometry (in Angstrom)
	    N    -1.0158222684  -1.4901429563   0.1490853401
	    C    -2.3144579707  -1.1396848429   0.4065361372
	    C    -2.6028366273   0.3779052871   0.4943016589
	    F    -3.5441224315   0.6626499089  -0.4386433318
	    F    -3.1321998326   0.6167296588   1.7190281119
	    C    -1.4148515183   1.3568827928   0.2886766510
	    C    -0.1002144475   0.7654140925   0.0235047449
	    C     1.0157457311   1.5852391820  -0.1737239918
	    C     2.2673511400   1.0553816168  -0.4308186321
	    C     2.4290368687  -0.3379276234  -0.5013469971
	    C     1.3225667178  -1.1703225768  -0.2976619783
	    C     0.0674912194  -0.6285115509  -0.0436943766
	    S     3.9555007144  -1.1744519638  -0.7828620656
	    C     5.2173599415   0.1263946802  -0.8168409099
	    O    -3.1959965540  -1.9531992707   0.5583554336
	    O    -1.6360240020   2.5455909683   0.3572792351
	    H     3.0978689158   1.7287057434  -0.6034982422
	    H     0.8733506929   2.6606129566  -0.1242669776
	    H    -0.8529531459  -2.4884129407   0.0944845759
	    H     1.4458047484  -2.2501857007  -0.3357136467
	    H     5.4413145388   0.4428124342  -1.8374207284
	    H     4.9497849712   0.9730285444  -0.1843479271
	    H     6.1199255942  -0.3267820994  -0.3985988371
	Saving final (previous) structure.
			--------------------------
			 OPTKING Finished Execution 
			--------------------------

    Final optimized geometry and variables:
    Molecular point group: c1
    Full point group: C1

    Geometry (in Angstrom), charge = 0, multiplicity = 1:

    N           -1.015822272424    -1.490142962178     0.149085340676
    C           -2.314457979772    -1.139684847344     0.406536138828
    C           -2.602836637525     0.377905288538     0.494301660882
    F           -3.544122445456     0.662649911491    -0.438643333572
    F           -3.132199844905     0.616729661227     1.719028118654
    C           -1.414851523814     1.356882798097     0.288676652109
    C           -0.100214447859     0.765414095538     0.023504745004
    C            1.015745735044     1.585239188207    -0.173723992484
    C            2.267351148930     1.055381620906    -0.430818633823
    C            2.429036878202    -0.337927624732    -0.501346999045
    C            1.322566723043    -1.170322581395    -0.297661979511
    C            0.067491219669    -0.628511553340    -0.043694376791
    S            3.955500729938    -1.174451968371    -0.782862068647
    C            5.217359962011     0.126394680738    -0.816840913079
    O           -3.195996566553    -1.953199278338     0.558355435769
    O           -1.636024008457     2.545590978296     0.357279236546
    H            3.097868928015     1.728705750218    -0.603498244611
    H            0.873350696325     2.660612967095    -0.124266978102
    H           -0.852953149278    -2.488412950510     0.094484576296
    H            1.445804754130    -2.250185709512    -0.335713648001
    H            5.441314560175     0.442812435913    -1.837420735647
    H            4.949784990672     0.973028548230    -0.184347927792
    H            6.119925618286    -0.326782100654    -0.398598838677

	Removing binary optimization data file.
	Cleaning optimization helper files.

    Psi4 stopped on: Tuesday, 22 June 2021 05:40AM
    Psi4 wall time for execution: 0:19:14.99

*** Psi4 exiting successfully. Buy a developer a beer!
