
    -----------------------------------------------------------------------
          Psi4: An Open-Source Ab Initio Electronic Structure Package
                               Psi4 1.3.2 release

                         Git: Rev {HEAD} ecbda83 


    R. M. Parrish, L. A. Burns, D. G. A. Smith, A. C. Simmonett,
    A. E. DePrince III, E. G. Hohenstein, U. Bozkaya, A. Yu. Sokolov,
    R. Di Remigio, R. M. Richard, J. F. Gonthier, A. M. James,
    H. R. McAlexander, A. Kumar, M. Saitow, X. Wang, B. P. Pritchard,
    P. Verma, H. F. Schaefer III, K. Patkowski, R. A. King, E. F. Valeev,
    F. A. Evangelista, J. M. Turney, T. D. Crawford, and C. D. Sherrill,
    J. Chem. Theory Comput. 13(7) pp 3185--3197 (2017).
    (doi: 10.1021/acs.jctc.7b00174)


                         Additional Contributions by
    P. Kraus, H. Kruse, M. H. Lechner, M. C. Schieber, R. A. Shaw,
    A. Alenaizan, R. Galvelis, Z. L. Glick, S. Lehtola, and J. P. Misiewicz

    -----------------------------------------------------------------------


    Psi4 started on: Tuesday, 22 June 2021 07:32AM

    Process ID: 31934
    Host:       cpu-spot-dy-c5n2xlarge-1
    PSIDATADIR: /fsx/users/francis/anaconda3/envs/poltype-dev/share/psi4
    Memory:     500.0 MiB
    Threads:    1
    
  ==> Input File <==

--------------------------------------------------------------------------
molecule { 
0 1
 N   -0.953256   -1.270273   -0.886241
 C   -2.293826   -1.047754   -0.708594
 C   -2.657396    0.137338    0.219068
 F   -3.681179    0.815463   -0.330665
 F   -3.088342   -0.418566    1.388378
 C   -1.524339    1.132142    0.591264
 C   -0.151934    0.687488    0.327057
 C    0.932759    1.440491    0.788476
 C    2.237837    1.046771    0.553769
 C    2.485779   -0.125673   -0.178352
 C    1.409402   -0.896209   -0.634354
 C    0.100054   -0.491517   -0.395585
 S    4.083346   -0.773393   -0.552297
 C    5.258007    0.304774    0.307167
 O   -3.147641   -1.742006   -1.209883
 O   -1.822627    2.183156    1.112194
 H    3.047542    1.647505    0.949086
 H    0.722556    2.346793    1.349113
 H   -0.733652   -2.082714   -1.450584
 H    1.598120   -1.815199   -1.185239
 H    4.941170    1.349437    0.313274
 H    5.401873   -0.017956    1.341799
 H    6.205131    0.223115   -0.229105
}
memory 16GB
set_num_threads(8)
psi4_io.set_default_path("/scratch/Psi4-ligand")
set freeze_core True
E, wfn = energy('wb97x-d/6-311++g**',return_wfn=True)
oeprop(wfn,"WIBERG_LOWDIN_INDICES")
clean()
--------------------------------------------------------------------------

  Memory set to  14.901 GiB by Python driver.
  Threads set to 8 by Python driver.

*** tstart() called on cpu-spot-dy-c5n2xlarge-1
*** at Tue Jun 22 07:32:37 2021

   => Loading Basis Set <=

    Name: 6-311++G**
    Role: ORBITAL
    Keyword: BASIS
    atoms 1             entry N          line   140 file /fsx/users/francis/anaconda3/envs/poltype-dev/share/psi4/basis/6-311ppgss.gbs 
    atoms 2-3, 6-12, 14 entry C          line   119 file /fsx/users/francis/anaconda3/envs/poltype-dev/share/psi4/basis/6-311ppgss.gbs 
    atoms 4-5           entry F          line   182 file /fsx/users/francis/anaconda3/envs/poltype-dev/share/psi4/basis/6-311ppgss.gbs 
    atoms 13            entry S          line   419 file /fsx/users/francis/anaconda3/envs/poltype-dev/share/psi4/basis/6-311ppgss.gbs 
    atoms 15-16         entry O          line   161 file /fsx/users/francis/anaconda3/envs/poltype-dev/share/psi4/basis/6-311ppgss.gbs 
    atoms 17-23         entry H          line    42 file /fsx/users/francis/anaconda3/envs/poltype-dev/share/psi4/basis/6-311ppgss.gbs 


         ---------------------------------------------------------
                                   SCF
               by Justin Turney, Rob Parrish, Andy Simmonett
                          and Daniel G. A. Smith
                              RKS Reference
                        8 Threads,  15258 MiB Core
         ---------------------------------------------------------

  ==> Geometry <==

    Molecular point group: c1
    Full point group: C1

    Geometry (in Angstrom), charge = 0, multiplicity = 1:

       Center              X                  Y                   Z               Mass       
    ------------   -----------------  -----------------  -----------------  -----------------
         N           -0.953256101963    -1.270272896787    -0.886241023928    14.003074004430
         C           -2.293826101963    -1.047753896787    -0.708594023928    12.000000000000
         C           -2.657396101963     0.137338103213     0.219067976072    12.000000000000
         F           -3.681179101963     0.815463103213    -0.330665023928    18.998403162730
         F           -3.088342101963    -0.418565896787     1.388377976072    18.998403162730
         C           -1.524339101963     1.132142103213     0.591263976072    12.000000000000
         C           -0.151934101963     0.687488103213     0.327056976072    12.000000000000
         C            0.932758898037     1.440491103213     0.788475976072    12.000000000000
         C            2.237836898037     1.046771103213     0.553768976072    12.000000000000
         C            2.485778898037    -0.125672896787    -0.178352023928    12.000000000000
         C            1.409401898037    -0.896208896787    -0.634354023928    12.000000000000
         C            0.100053898037    -0.491516896787    -0.395585023928    12.000000000000
         S            4.083345898037    -0.773392896787    -0.552297023928    31.972071174400
         C            5.258006898037     0.304774103213     0.307166976072    12.000000000000
         O           -3.147641101963    -1.742005896787    -1.209883023928    15.994914619570
         O           -1.822627101963     2.183156103213     1.112193976072    15.994914619570
         H            3.047541898037     1.647505103213     0.949085976072     1.007825032230
         H            0.722555898037     2.346793103213     1.349112976072     1.007825032230
         H           -0.733652101963    -2.082713896787    -1.450584023928     1.007825032230
         H            1.598119898037    -1.815198896787    -1.185239023928     1.007825032230
         H            4.941169898037     1.349437103213     0.313273976072     1.007825032230
         H            5.401872898037    -0.017955896787     1.341798976072     1.007825032230
         H            6.205130898037     0.223115103213    -0.229105023928     1.007825032230

  Running in c1 symmetry.

  Rotational constants: A =      0.03950  B =      0.00830  C =      0.00715 [cm^-1]
  Rotational constants: A =   1184.32366  B =    248.86527  C =    214.39659 [MHz]
  Nuclear repulsion = 1188.048815600674288

  Charge       = 0
  Multiplicity = 1
  Electrons    = 124
  Nalpha       = 62
  Nbeta        = 62

  ==> Algorithm <==

  SCF Algorithm Type is DF.
  DIIS enabled.
  MOM disabled.
  Fractional occupation disabled.
  Guess Type is SAD.
  Energy threshold   = 1.00e-06
  Density threshold  = 1.00e-06
  Integral threshold = 0.00e+00

  ==> Primary Basis <==

  Basis Set: 6-311++G**
    Blend: 6-311++G**
    Number of shells: 199
    Number of basis function: 409
    Number of Cartesian functions: 425
    Spherical Harmonics?: true
    Max angular momentum: 2

  ==> DFT Potential <==

   => Composite Functional: WB97X-D <= 

    wB97X-D Hyb-GGA Exchange-Correlation Functional

    J.-D. Chai and M. Head-Gordon, Phys. Chem. Chem. Phys. 10, 6615 (2008)

    Deriv               =              1
    GGA                 =           TRUE
    Meta                =          FALSE

    Exchange Hybrid     =           TRUE
    MP2 Hybrid          =          FALSE

   => Exchange-Correlation Functionals <=

    1.0000   wB97D range-separated functional

   => Exact (HF) Exchange <=

    0.7780            HF,LR [omega = 0.2000]
    0.2220               HF 

   => Molecular Quadrature <=

    Radial Scheme          =       TREUTLER
    Pruning Scheme         =           FLAT
    Nuclear Scheme         =       TREUTLER

    BS radius alpha        =              1
    Pruning alpha          =              1
    Radial Points          =             75
    Spherical Points       =            302
    Total Points           =         520869
    Total Blocks           =           3870
    Max Points             =            256
    Max Functions          =            318

   => WB97X-D: Empirical Dispersion <=

    Chai and Head-Gordon Dispersion Correction
    Chai, J.-D.; Head-Gordon, M. (2010), J. Chem. Phys., 132: 6615-6620

        s6 =       1.000000

   => Loading Basis Set <=

    Name: (6-311++G** AUX)
    Role: JKFIT
    Keyword: DF_BASIS_SCF
    atoms 1             entry N          line   224 file /fsx/users/francis/anaconda3/envs/poltype-dev/share/psi4/basis/aug-cc-pvtz-jkfit.gbs 
    atoms 2-3, 6-12, 14 entry C          line   162 file /fsx/users/francis/anaconda3/envs/poltype-dev/share/psi4/basis/aug-cc-pvtz-jkfit.gbs 
    atoms 4-5           entry F          line   348 file /fsx/users/francis/anaconda3/envs/poltype-dev/share/psi4/basis/aug-cc-pvtz-jkfit.gbs 
    atoms 13            entry S          line   730 file /fsx/users/francis/anaconda3/envs/poltype-dev/share/psi4/basis/aug-cc-pvtz-jkfit.gbs 
    atoms 15-16         entry O          line   286 file /fsx/users/francis/anaconda3/envs/poltype-dev/share/psi4/basis/aug-cc-pvtz-jkfit.gbs 
    atoms 17-23         entry H          line    70 file /fsx/users/francis/anaconda3/envs/poltype-dev/share/psi4/basis/aug-cc-pvtz-jkfit.gbs 

  ==> Pre-Iterations <==

   -------------------------------------------------------
    Irrep   Nso     Nmo     Nalpha   Nbeta   Ndocc  Nsocc
   -------------------------------------------------------
     A        409     409       0       0       0       0
   -------------------------------------------------------
    Total     409     409      62      62      62       0
   -------------------------------------------------------

  ==> Integral Setup <==

  ==> DiskDFJK: Density-Fitted J/K Matrices <==

    J tasked:                  Yes
    K tasked:                  Yes
    wK tasked:                 Yes
    Omega:               2.000E-01
    OpenMP threads:              8
    Integrals threads:           8
    Memory [MiB]:             7967
    Algorithm:                Core
    Integral Cache:           NONE
    Schwarz Cutoff:          1E-12
    Fitting Condition:       1E-10

   => Auxiliary Basis Set <=

  Basis Set: (6-311++G** AUX)
    Blend: AUG-CC-PVTZ-JKFIT
    Number of shells: 590
    Number of basis function: 2028
    Number of Cartesian functions: 2530
    Spherical Harmonics?: true
    Max angular momentum: 4

  Cached 100.0% of DFT collocation blocks in 3.395 [GiB].

  Minimum eigenvalue in the overlap matrix is 2.5092812133E-07.
  Using Symmetric Orthogonalization.

  SCF Guess: Superposition of Atomic Densities via on-the-fly atomic UHF.

  ==> Iterations <==

                           Total Energy        Delta E     RMS |[F,P]|

   @DF-RKS iter SAD: -1187.90351012113661   -1.18790e+03   0.00000e+00 
   @DF-RKS iter   1: -1187.70919520971870    1.94315e-01   2.91095e-03 DIIS
   @DF-RKS iter   2: -1187.75684545383865   -4.76502e-02   2.98021e-03 DIIS
   @DF-RKS iter   3: -1188.30374451932312   -5.46899e-01   6.53145e-04 DIIS
   @DF-RKS iter   4: -1188.32753122127770   -2.37867e-02   2.39554e-04 DIIS
   @DF-RKS iter   5: -1188.33159489366676   -4.06367e-03   6.27533e-05 DIIS
   @DF-RKS iter   6: -1188.33203194293128   -4.37049e-04   1.90192e-05 DIIS
   @DF-RKS iter   7: -1188.33208888776653   -5.69448e-05   8.09030e-06 DIIS
   @DF-RKS iter   8: -1188.33210558063524   -1.66929e-05   3.28982e-06 DIIS
   @DF-RKS iter   9: -1188.33210873381449   -3.15318e-06   1.49571e-06 DIIS
   @DF-RKS iter  10: -1188.33210909030618   -3.56492e-07   5.60438e-07 DIIS
  Energy and wave function converged.


  ==> Post-Iterations <==

    Orbital Energies [Eh]
    ---------------------

    Doubly Occupied:                                                      

       1A    -89.053817     2A    -24.840562     3A    -24.838492  
       4A    -19.269761     5A    -19.260718     6A    -14.516642  
       7A    -10.484815     8A    -10.436658     9A    -10.411316  
      10A    -10.390926    11A    -10.373069    12A    -10.341431  
      13A    -10.334820    14A    -10.331173    15A    -10.330909  
      16A    -10.324721    17A     -8.094427    18A     -6.043933  
      19A     -6.039432    20A     -6.033585    21A     -1.389905  
      22A     -1.328542    23A     -1.192241    24A     -1.180721  
      25A     -1.097944    26A     -1.006366    27A     -0.944320  
      28A     -0.906397    29A     -0.888813    30A     -0.868699  
      31A     -0.800303    32A     -0.765654    33A     -0.753585  
      34A     -0.745791    35A     -0.697501    36A     -0.683771  
      37A     -0.670314    38A     -0.646766    39A     -0.630778  
      40A     -0.593581    41A     -0.588740    42A     -0.569414  
      43A     -0.564237    44A     -0.558062    45A     -0.557724  
      46A     -0.552784    47A     -0.546979    48A     -0.535197  
      49A     -0.520620    50A     -0.516030    51A     -0.508959  
      52A     -0.499155    53A     -0.490738    54A     -0.489684  
      55A     -0.475651    56A     -0.443732    57A     -0.433529  
      58A     -0.399185    59A     -0.395385    60A     -0.364307  
      61A     -0.341787    62A     -0.319216  

    Virtual:                                                              

      63A     -0.042995    64A      0.012477    65A      0.025627  
      66A      0.033934    67A      0.046796    68A      0.052817  
      69A      0.059816    70A      0.065070    71A      0.069921  
      72A      0.073336    73A      0.080173    74A      0.085254  
      75A      0.096076    76A      0.099034    77A      0.103635  
      78A      0.105944    79A      0.111176    80A      0.118872  
      81A      0.125983    82A      0.127240    83A      0.130748  
      84A      0.135538    85A      0.142278    86A      0.148208  
      87A      0.152939    88A      0.154495    89A      0.163435  
      90A      0.167877    91A      0.170914    92A      0.174235  
      93A      0.174796    94A      0.176180    95A      0.181377  
      96A      0.189250    97A      0.192769    98A      0.196555  
      99A      0.198982   100A      0.204100   101A      0.204819  
     102A      0.210387   103A      0.213088   104A      0.217720  
     105A      0.221169   106A      0.226455   107A      0.229789  
     108A      0.234215   109A      0.238237   110A      0.247653  
     111A      0.250148   112A      0.255624   113A      0.261911  
     114A      0.265329   115A      0.271988   116A      0.272509  
     117A      0.280329   118A      0.283245   119A      0.285690  
     120A      0.293491   121A      0.297636   122A      0.301697  
     123A      0.304328   124A      0.311056   125A      0.316871  
     126A      0.317554   127A      0.325551   128A      0.331535  
     129A      0.339568   130A      0.342980   131A      0.344468  
     132A      0.349974   133A      0.356593   134A      0.360378  
     135A      0.367457   136A      0.370403   137A      0.375632  
     138A      0.381572   139A      0.385246   140A      0.389679  
     141A      0.395141   142A      0.404139   143A      0.406758  
     144A      0.414080   145A      0.423889   146A      0.432114  
     147A      0.435252   148A      0.440220   149A      0.449475  
     150A      0.455793   151A      0.467849   152A      0.471059  
     153A      0.475652   154A      0.485618   155A      0.495561  
     156A      0.503265   157A      0.505738   158A      0.521311  
     159A      0.537053   160A      0.541335   161A      0.546284  
     162A      0.560237   163A      0.564595   164A      0.586181  
     165A      0.592314   166A      0.604350   167A      0.608459  
     168A      0.621429   169A      0.632539   170A      0.637462  
     171A      0.649971   172A      0.653958   173A      0.656134  
     174A      0.661620   175A      0.679421   176A      0.688834  
     177A      0.702127   178A      0.711282   179A      0.724076  
     180A      0.730494   181A      0.737659   182A      0.745902  
     183A      0.753757   184A      0.755735   185A      0.762826  
     186A      0.768298   187A      0.780467   188A      0.787853  
     189A      0.802239   190A      0.807336   191A      0.819309  
     192A      0.828424   193A      0.844410   194A      0.864391  
     195A      0.870887   196A      0.875032   197A      0.894394  
     198A      0.897762   199A      0.912237   200A      0.925668  
     201A      0.936354   202A      0.946736   203A      0.951796  
     204A      0.967331   205A      0.970913   206A      0.981833  
     207A      0.992361   208A      0.997961   209A      1.012218  
     210A      1.026815   211A      1.042316   212A      1.051002  
     213A      1.052908   214A      1.061062   215A      1.093107  
     216A      1.102893   217A      1.122924   218A      1.127077  
     219A      1.147066   220A      1.164335   221A      1.178495  
     222A      1.191219   223A      1.193018   224A      1.207781  
     225A      1.218442   226A      1.225652   227A      1.251740  
     228A      1.266761   229A      1.275715   230A      1.292670  
     231A      1.296755   232A      1.314599   233A      1.327131  
     234A      1.332522   235A      1.356636   236A      1.386574  
     237A      1.404239   238A      1.460480   239A      1.490511  
     240A      1.496448   241A      1.507947   242A      1.526818  
     243A      1.529728   244A      1.545216   245A      1.564186  
     246A      1.573438   247A      1.586195   248A      1.587669  
     249A      1.603508   250A      1.607200   251A      1.612627  
     252A      1.621992   253A      1.637386   254A      1.643595  
     255A      1.654950   256A      1.670737   257A      1.677572  
     258A      1.693081   259A      1.701776   260A      1.708650  
     261A      1.728040   262A      1.751795   263A      1.765071  
     264A      1.782984   265A      1.794953   266A      1.802582  
     267A      1.816475   268A      1.825668   269A      1.846773  
     270A      1.854000   271A      1.885146   272A      1.889080  
     273A      1.903521   274A      1.930750   275A      1.943866  
     276A      1.954095   277A      1.988089   278A      2.000545  
     279A      2.007111   280A      2.008922   281A      2.030111  
     282A      2.036275   283A      2.065097   284A      2.070298  
     285A      2.088024   286A      2.090274   287A      2.101848  
     288A      2.119687   289A      2.129112   290A      2.161403  
     291A      2.200868   292A      2.206270   293A      2.231923  
     294A      2.246764   295A      2.274677   296A      2.288509  
     297A      2.311661   298A      2.316698   299A      2.337371  
     300A      2.348971   301A      2.429438   302A      2.480897  
     303A      2.509557   304A      2.519632   305A      2.532068  
     306A      2.545636   307A      2.566635   308A      2.596421  
     309A      2.626454   310A      2.648921   311A      2.655643  
     312A      2.691054   313A      2.747225   314A      2.768864  
     315A      2.788759   316A      2.795877   317A      2.804921  
     318A      2.823154   319A      2.832661   320A      2.845393  
     321A      2.869257   322A      2.883930   323A      2.893271  
     324A      2.908899   325A      2.925886   326A      2.940278  
     327A      2.962487   328A      2.972079   329A      2.994562  
     330A      3.021683   331A      3.040516   332A      3.053445  
     333A      3.061360   334A      3.087368   335A      3.111163  
     336A      3.126591   337A      3.165173   338A      3.192643  
     339A      3.287624   340A      3.294065   341A      3.330727  
     342A      3.365161   343A      3.410249   344A      3.429991  
     345A      3.434500   346A      3.484626   347A      3.533925  
     348A      3.543768   349A      3.599918   350A      3.631623  
     351A      3.651389   352A      3.686853   353A      3.706380  
     354A      3.775540   355A      3.800903   356A      3.815915  
     357A      3.849808   358A      3.854156   359A      3.865355  
     360A      3.902548   361A      3.923293   362A      3.951768  
     363A      3.975868   364A      4.005931   365A      4.025822  
     366A      4.078117   367A      4.129760   368A      4.185519  
     369A      4.245095   370A      4.292243   371A      4.365032  
     372A      4.519667   373A      4.821200   374A      4.890426  
     375A      4.916293   376A      5.026631   377A      5.154419  
     378A      5.162998   379A      5.200917   380A      5.326614  
     381A      5.333858   382A      5.836255   383A      5.882014  
     384A      6.465350   385A      6.492525   386A      6.516033  
     387A      6.562025   388A      6.656255   389A      6.883807  
     390A      8.093728   391A     17.439516   392A     17.617935  
     393A     17.650407   394A     23.630399   395A     23.743872  
     396A     23.968201   397A     24.000441   398A     24.017440  
     399A     24.033482   400A     24.036229   401A     24.133666  
     402A     24.188803   403A     24.276053   404A     35.755957  
     405A     50.137738   406A     50.158038   407A     66.901283  
     408A     66.968831   409A    189.356333  

    Final Occupation by Irrep:
              A 
    DOCC [    62 ]

  @DF-RKS Final Energy: -1188.33210909030618

   => Energetics <=

    Nuclear Repulsion Energy =           1188.0488156006742884
    One-Electron Energy =               -3991.0622391559199968
    Two-Electron Energy =                1704.4311272533209376
    DFT Exchange-Correlation Energy =     -89.7362593839226292
    Empirical Dispersion Energy =          -0.0135534044586698
    VV10 Nonlocal Energy =                  0.0000000000000000
    Total Energy =                      -1188.3321090903061759

Computation Completed


Properties will be evaluated at   0.000000,   0.000000,   0.000000 [a0]

Properties computed using the SCF density matrix

  Nuclear Dipole Moment: [e a0]
     X:    26.3309      Y:     1.1587      Z:     0.0100

  Electronic Dipole Moment: [e a0]
     X:   -23.0659      Y:    -1.3571      Z:    -0.1585

  Dipole Moment: [e a0]
     X:     3.2650      Y:    -0.1984      Z:    -0.1485     Total:     3.2744

  Dipole Moment: [D]
     X:     8.2988      Y:    -0.5043      Z:    -0.3774     Total:     8.3227


*** tstop() called on cpu-spot-dy-c5n2xlarge-1 at Tue Jun 22 07:34:05 2021
Module time:
	user time   =     638.94 seconds =      10.65 minutes
	system time =      10.50 seconds =       0.17 minutes
	total time  =         88 seconds =       1.47 minutes
Total time:
	user time   =     638.94 seconds =      10.65 minutes
	system time =      10.50 seconds =       0.17 minutes
	total time  =         88 seconds =       1.47 minutes


Properties will be evaluated at   0.000000,   0.000000,   0.000000 [a0]
OEProp: No title given, name of density matrix used for the following properties is 'SCF density'


  Wiberg Bond Indices using Orthogonal Lowdin Orbitals:

  Irrep: 1 Size: 23 x 23

                 1                   2                   3                   4                   5

    1     0.00000000000000     1.31851222894659     0.10144628354823     0.01143610622601     0.01663867485942
    2     1.31851222894659     0.00000000000000     0.88345042101755     0.10819291155017     0.11286308628992
    3     0.10144628354823     0.88345042101755     0.00000000000000     1.38404552089991     1.33753614697349
    4     0.01143610622601     0.10819291155017     1.38404552089991     0.00000000000000     0.13756091242890
    5     0.01663867485942     0.11286308628992     1.33753614697349     0.13756091242890     0.00000000000000
    6     0.03406422706963     0.07438467226228     0.89674303400744     0.10630567324590     0.11146837872759
    7     0.11665122440480     0.03560510980195     0.10017678500816     0.01213315697475     0.01641593957957
    8     0.01513440480653     0.00373087589082     0.01360956701982     0.00200650663970     0.00230080887303
    9     0.01444275497401     0.00531509582416     0.00255298806334     0.00041036579185     0.00041953521751
   10     0.01728935443778     0.00305677684355     0.00151794459350     0.00031182359387     0.00071607934089
   11     0.13391851031908     0.02671064606326     0.00437588702661     0.00048594288616     0.00081689071098
   12     1.18870134858860     0.09708430657324     0.03162737540687     0.00374523455223     0.00670143438401
   13     0.00286000592332     0.00103452065182     0.00070413035761     0.00018284166161     0.00045594590123
   14     0.00048280222397     0.00016685846581     0.00009211603464     0.00001558656328     0.00002408705332
   15     0.24728837362778     2.29263399681379     0.15046139191505     0.04197192490220     0.03469411990910
   16     0.00474879037062     0.01614515028976     0.15955423626021     0.04588154045652     0.03752219590934
   17     0.00071505607717     0.00022339612277     0.00047897995115     0.00007634768225     0.00005568879809
   18     0.00129161637797     0.00048745263177     0.00210724872524     0.00037955564755     0.00028895905198
   19     0.91359871892324     0.07307901593375     0.01375467410030     0.00187659150505     0.00157843879432
   20     0.02324573739713     0.00230949016920     0.00073174013310     0.00011788688014     0.00010369733920
   21     0.00008743834163     0.00003084837404     0.00004649727468     0.00000769825892     0.00000976158521
   22     0.00009340536559     0.00004402454954     0.00002611487725     0.00000548996407     0.00001531286636
   23     0.00008126602240     0.00003040853292     0.00001352872650     0.00000171019508     0.00000399855645

                 6                   7                   8                   9                  10

    1     0.03406422706963     0.11665122440480     0.01513440480653     0.01444275497401     0.01728935443778
    2     0.07438467226228     0.03560510980195     0.00373087589082     0.00531509582416     0.00305677684355
    3     0.89674303400744     0.10017678500816     0.01360956701982     0.00255298806334     0.00151794459350
    4     0.10630567324590     0.01213315697475     0.00200650663970     0.00041036579185     0.00031182359387
    5     0.11146837872759     0.01641593957957     0.00230080887303     0.00041953521751     0.00071607934089
    6     0.00000000000000     1.06582591548065     0.12097470354629     0.02045675891755     0.01506375500099
    7     1.06582591548065     0.00000000000000     1.34280884964234     0.13192983792810     0.10776137780805
    8     0.12097470354629     1.34280884964234     0.00000000000000     1.50411076340942     0.13592829878095
    9     0.02045675891755     0.13192983792810     1.50411076340942     0.00000000000000     1.37398890089211
   10     0.01506375500099     0.10776137780805     0.13592829878095     1.37398890089211     0.00000000000000
   11     0.01585800739858     0.11969201684981     0.12124100674767     0.12515599083538     1.41514539371548
   12     0.11420871026588     1.27403576586195     0.12380534191115     0.10748151088296     0.12947083134190
   13     0.00662521823827     0.02238536886260     0.02528223540246     0.14343655596560     1.30843721827275
   14     0.00032325132937     0.00162800792326     0.00412422810852     0.04547871092391     0.08095719299987
   15     0.01552697033016     0.00894998969364     0.00105493757998     0.00450576471929     0.00196524302104
   16     2.31619467441591     0.16555102008706     0.07507011854079     0.00628838490702     0.01606560299729
   17     0.00149286927950     0.01234440740431     0.08362644886248     0.85992857577320     0.07420668904931
   18     0.02022163990166     0.07687106999563     0.85226555069941     0.08060823444056     0.01215796540386
   19     0.00258886007291     0.01257367744361     0.00171200531553     0.00133557732418     0.00196131634815
   20     0.00170695459188     0.01149039492897     0.00556427768659     0.01253208861587     0.07556839367850
   21     0.00015894091864     0.00082949989870     0.00191595473987     0.02113438753309     0.01823272710680
   22     0.00017775509085     0.00061129246948     0.00036856281185     0.00638316204700     0.01032170378559
   23     0.00004027608654     0.00017418614430     0.00026051363150     0.00261749434039     0.01172438950554

                11                  12                  13                  14                  15

    1     0.13391851031908     1.18870134858860     0.00286000592332     0.00048280222397     0.24728837362778
    2     0.02671064606326     0.09708430657324     0.00103452065182     0.00016685846581     2.29263399681379
    3     0.00437588702661     0.03162737540687     0.00070413035761     0.00009211603464     0.15046139191505
    4     0.00048594288616     0.00374523455223     0.00018284166161     0.00001558656328     0.04197192490220
    5     0.00081689071098     0.00670143438401     0.00045594590123     0.00002408705332     0.03469411990910
    6     0.01585800739858     0.11420871026588     0.00662521823827     0.00032325132937     0.01552697033016
    7     0.11969201684981     1.27403576586195     0.02238536886260     0.00162800792326     0.00894998969364
    8     0.12124100674767     0.12380534191115     0.02528223540246     0.00412422810852     0.00105493757998
    9     0.12515599083538     0.10748151088296     0.14343655596560     0.04547871092391     0.00450576471929
   10     1.41514539371548     0.12947083134190     1.30843721827275     0.08095719299987     0.00196524302104
   11     0.00000000000000     1.39192935354172     0.18371414473593     0.01867387933636     0.01249406944642
   12     1.39192935354172     0.00000000000000     0.02596452792595     0.00315653295497     0.03047261507980
   13     0.18371414473593     0.02596452792595     0.00000000000000     1.24189797845926     0.00083636865630
   14     0.01867387933636     0.00315653295497     1.24189797845926     0.00000000000000     0.00010094044981
   15     0.01249406944642     0.03047261507980     0.00083636865630     0.00010094044981     0.00000000000000
   16     0.00483862719474     0.04132567401020     0.00693458721073     0.00026048164859     0.00572301492497
   17     0.01217267483048     0.00523611245951     0.02022241898002     0.02181872681381     0.00016828706665
   18     0.00529481086823     0.01195322597338     0.00217793219564     0.00044047503844     0.00019391326406
   19     0.02020673756712     0.06530845902487     0.00033432590475     0.00006736895964     0.02852139022526
   20     0.85026828480660     0.07789816887560     0.03296055505441     0.00260335977348     0.00067033014999
   21     0.00223999804094     0.00044087000207     0.05889692713653     0.93333552613465     0.00001890859918
   22     0.00214177430452     0.00060482083320     0.06785623672804     0.94529038725313     0.00004551668204
   23     0.00199313407568     0.00049192323520     0.07330363345276     0.94396240155502     0.00001783864034

                16                  17                  18                  19                  20

    1     0.00474879037062     0.00071505607717     0.00129161637797     0.91359871892324     0.02324573739713
    2     0.01614515028976     0.00022339612277     0.00048745263177     0.07307901593375     0.00230949016920
    3     0.15955423626021     0.00047897995115     0.00210724872524     0.01375467410030     0.00073174013310
    4     0.04588154045652     0.00007634768225     0.00037955564755     0.00187659150505     0.00011788688014
    5     0.03752219590934     0.00005568879809     0.00028895905198     0.00157843879432     0.00010369733920
    6     2.31619467441591     0.00149286927950     0.02022163990166     0.00258886007291     0.00170695459188
    7     0.16555102008706     0.01234440740431     0.07687106999563     0.01257367744361     0.01149039492897
    8     0.07507011854079     0.08362644886248     0.85226555069941     0.00171200531553     0.00556427768659
    9     0.00628838490702     0.85992857577320     0.08060823444056     0.00133557732418     0.01253208861587
   10     0.01606560299729     0.07420668904931     0.01215796540386     0.00196131634815     0.07556839367850
   11     0.00483862719474     0.01217267483048     0.00529481086823     0.02020673756712     0.85026828480660
   12     0.04132567401020     0.00523611245951     0.01195322597338     0.06530845902487     0.07789816887560
   13     0.00693458721073     0.02022241898002     0.00217793219564     0.00033432590475     0.03296055505441
   14     0.00026048164859     0.02181872681381     0.00044047503844     0.00006736895964     0.00260335977348
   15     0.00572301492497     0.00016828706665     0.00019391326406     0.02852139022526     0.00067033014999
   16     0.00000000000000     0.00038846253385     0.02080791114481     0.00051556751025     0.00060255733543
   17     0.00038846253385     0.00000000000000     0.01041451906721     0.00010684946580     0.00117253560922
   18     0.02080791114481     0.01041451906721     0.00000000000000     0.00060680021937     0.00047905954293
   19     0.00051556751025     0.00010684946580     0.00060680021937     0.00000000000000     0.00640302514305
   20     0.00060255733543     0.00117253560922     0.00047905954293     0.00640302514305     0.00000000000000
   21     0.00014605213522     0.01337772593723     0.00014963828580     0.00001522279605     0.00054508936803
   22     0.00019527833821     0.00254424361492     0.00003592767802     0.00001007656451     0.00030352735361
   23     0.00002915361839     0.00120633712572     0.00004624211053     0.00000857010134     0.00029701622382

                21                  22                  23

    1     0.00008743834163     0.00009340536559     0.00008126602240
    2     0.00003084837404     0.00004402454954     0.00003040853292
    3     0.00004649727468     0.00002611487725     0.00001352872650
    4     0.00000769825892     0.00000548996407     0.00000171019508
    5     0.00000976158521     0.00001531286636     0.00000399855645
    6     0.00015894091864     0.00017775509085     0.00004027608654
    7     0.00082949989870     0.00061129246948     0.00017418614430
    8     0.00191595473987     0.00036856281185     0.00026051363150
    9     0.02113438753309     0.00638316204700     0.00261749434039
   10     0.01823272710680     0.01032170378559     0.01172438950554
   11     0.00223999804094     0.00214177430452     0.00199313407568
   12     0.00044087000207     0.00060482083320     0.00049192323520
   13     0.05889692713653     0.06785623672804     0.07330363345276
   14     0.93333552613465     0.94529038725313     0.94396240155502
   15     0.00001890859918     0.00004551668204     0.00001783864034
   16     0.00014605213522     0.00019527833821     0.00002915361839
   17     0.01337772593723     0.00254424361492     0.00120633712572
   18     0.00014963828580     0.00003592767802     0.00004624211053
   19     0.00001522279605     0.00001007656451     0.00000857010134
   20     0.00054508936803     0.00030352735361     0.00029701622382
   21     0.00000000000000     0.04009065811734     0.04176472235692
   22     0.04009065811734     0.00000000000000     0.04091288395115
   23     0.04176472235692     0.04091288395115     0.00000000000000



  Atomic Valences: 

 #  #
 Irrep: 1
      1:  4.1627283
      2:  5.0550913
      3:  5.0850526
      4:  1.8571513
      5:  1.8181901
      6:  4.9404112
      7:  4.6364449
      8:  4.4368960
      9:  4.4705134
     10:  4.8118490
     11:  4.4693678
     12:  4.7316441
     13:  3.2265037
     14:  4.2449009
     15:  2.8783159
     16:  2.9247891
     17:  1.1219774
     18:  1.0992797
     19:  1.1461633
     20:  1.1075742
     21:  1.1334751
     22:  1.1180782
     23:  1.1189816


    Psi4 stopped on: Tuesday, 22 June 2021 07:34AM
    Psi4 wall time for execution: 0:01:28.38

*** Psi4 exiting successfully. Buy a developer a beer!
