
    -----------------------------------------------------------------------
          Psi4: An Open-Source Ab Initio Electronic Structure Package
                               Psi4 1.3.2 release

                         Git: Rev {HEAD} ecbda83 


    R. M. Parrish, L. A. Burns, D. G. A. Smith, A. C. Simmonett,
    A. E. DePrince III, E. G. Hohenstein, U. Bozkaya, A. Yu. Sokolov,
    R. Di Remigio, R. M. Richard, J. F. Gonthier, A. M. James,
    H. R. McAlexander, A. Kumar, M. Saitow, X. Wang, B. P. Pritchard,
    P. Verma, H. F. Schaefer III, K. Patkowski, R. A. King, E. F. Valeev,
    F. A. Evangelista, J. M. Turney, T. D. Crawford, and C. D. Sherrill,
    J. Chem. Theory Comput. 13(7) pp 3185--3197 (2017).
    (doi: 10.1021/acs.jctc.7b00174)


                         Additional Contributions by
    P. Kraus, H. Kruse, M. H. Lechner, M. C. Schieber, R. A. Shaw,
    A. Alenaizan, R. Galvelis, Z. L. Glick, S. Lehtola, and J. P. Misiewicz

    -----------------------------------------------------------------------


    Psi4 started on: Tuesday, 22 June 2021 07:43AM

    Process ID: 32120
    Host:       cpu-spot-dy-c5n2xlarge-1
    PSIDATADIR: /fsx/users/francis/anaconda3/envs/poltype-dev/share/psi4
    Memory:     500.0 MiB
    Threads:    1
    
  ==> Input File <==

--------------------------------------------------------------------------
molecule { 
0 1
 N   -1.012426   -1.488635    0.151902
 C   -2.304741   -1.143746    0.448405
 C   -2.599666    0.375435    0.518743
 F   -3.451585    0.658441   -0.501431
 F   -3.240972    0.615076    1.684647
 C   -1.397700    1.354951    0.406105
 C   -0.094847    0.769408    0.080447
 C    1.020577    1.592649   -0.102980
 C    2.264314    1.071187   -0.408115
 C    2.419005   -0.318003   -0.542477
 C    1.314873   -1.154111   -0.341002
 C    0.066276   -0.621252   -0.040936
 S    3.921817   -1.169173   -0.907510
 C    5.238400    0.081553   -0.939362
 O   -3.177911   -1.960523    0.630026
 O   -1.601951    2.537395    0.572874
 H    3.095185    1.751609   -0.547306
 H    0.882327    2.664764    0.000541
 H   -0.847587   -2.485384    0.082421
 H    1.434679   -2.232079   -0.421497
 H    5.765445    0.004727   -1.892238
 H    4.845751    1.094704   -0.855474
 H    5.931014   -0.096170   -0.114637
}
memory 16GB
set_num_threads(8)
psi4_io.set_default_path("/scratch/Psi4-ligand")
set freeze_core True
E, wfn = energy('wb97x-d/6-311++g**',return_wfn=True)
oeprop(wfn,"WIBERG_LOWDIN_INDICES")
clean()
--------------------------------------------------------------------------

  Memory set to  14.901 GiB by Python driver.
  Threads set to 8 by Python driver.

*** tstart() called on cpu-spot-dy-c5n2xlarge-1
*** at Tue Jun 22 07:43:38 2021

   => Loading Basis Set <=

    Name: 6-311++G**
    Role: ORBITAL
    Keyword: BASIS
    atoms 1             entry N          line   140 file /fsx/users/francis/anaconda3/envs/poltype-dev/share/psi4/basis/6-311ppgss.gbs 
    atoms 2-3, 6-12, 14 entry C          line   119 file /fsx/users/francis/anaconda3/envs/poltype-dev/share/psi4/basis/6-311ppgss.gbs 
    atoms 4-5           entry F          line   182 file /fsx/users/francis/anaconda3/envs/poltype-dev/share/psi4/basis/6-311ppgss.gbs 
    atoms 13            entry S          line   419 file /fsx/users/francis/anaconda3/envs/poltype-dev/share/psi4/basis/6-311ppgss.gbs 
    atoms 15-16         entry O          line   161 file /fsx/users/francis/anaconda3/envs/poltype-dev/share/psi4/basis/6-311ppgss.gbs 
    atoms 17-23         entry H          line    42 file /fsx/users/francis/anaconda3/envs/poltype-dev/share/psi4/basis/6-311ppgss.gbs 


         ---------------------------------------------------------
                                   SCF
               by Justin Turney, Rob Parrish, Andy Simmonett
                          and Daniel G. A. Smith
                              RKS Reference
                        8 Threads,  15258 MiB Core
         ---------------------------------------------------------

  ==> Geometry <==

    Molecular point group: c1
    Full point group: C1

    Geometry (in Angstrom), charge = 0, multiplicity = 1:

       Center              X                  Y                   Z               Mass       
    ------------   -----------------  -----------------  -----------------  -----------------
         N           -1.012426094215    -1.488634904763     0.151901858772    14.003074004430
         C           -2.304741094215    -1.143745904763     0.448404858772    12.000000000000
         C           -2.599666094215     0.375435095237     0.518742858772    12.000000000000
         F           -3.451585094215     0.658441095237    -0.501431141228    18.998403162730
         F           -3.240972094215     0.615076095237     1.684646858772    18.998403162730
         C           -1.397700094215     1.354951095237     0.406104858772    12.000000000000
         C           -0.094847094215     0.769408095237     0.080446858772    12.000000000000
         C            1.020576905785     1.592649095237    -0.102980141228    12.000000000000
         C            2.264313905785     1.071187095237    -0.408115141228    12.000000000000
         C            2.419004905785    -0.318002904763    -0.542477141228    12.000000000000
         C            1.314872905785    -1.154110904763    -0.341002141228    12.000000000000
         C            0.066275905785    -0.621251904763    -0.040936141228    12.000000000000
         S            3.921816905785    -1.169172904763    -0.907510141228    31.972071174400
         C            5.238399905785     0.081553095237    -0.939362141228    12.000000000000
         O           -3.177911094215    -1.960522904763     0.630025858772    15.994914619570
         O           -1.601951094215     2.537395095237     0.572873858772    15.994914619570
         H            3.095184905785     1.751609095237    -0.547306141228     1.007825032230
         H            0.882326905785     2.664764095237     0.000540858772     1.007825032230
         H           -0.847587094215    -2.485383904763     0.082420858772     1.007825032230
         H            1.434678905785    -2.232078904763    -0.421497141228     1.007825032230
         H            5.765444905785     0.004727095237    -1.892238141228     1.007825032230
         H            4.845750905785     1.094704095237    -0.855474141228     1.007825032230
         H            5.931013905785    -0.096169904763    -0.114637141228     1.007825032230

  Running in c1 symmetry.

  Rotational constants: A =      0.03956  B =      0.00825  C =      0.00711 [cm^-1]
  Rotational constants: A =   1185.88325  B =    247.46369  C =    213.04432 [MHz]
  Nuclear repulsion = 1186.684312849589560

  Charge       = 0
  Multiplicity = 1
  Electrons    = 124
  Nalpha       = 62
  Nbeta        = 62

  ==> Algorithm <==

  SCF Algorithm Type is DF.
  DIIS enabled.
  MOM disabled.
  Fractional occupation disabled.
  Guess Type is SAD.
  Energy threshold   = 1.00e-06
  Density threshold  = 1.00e-06
  Integral threshold = 0.00e+00

  ==> Primary Basis <==

  Basis Set: 6-311++G**
    Blend: 6-311++G**
    Number of shells: 199
    Number of basis function: 409
    Number of Cartesian functions: 425
    Spherical Harmonics?: true
    Max angular momentum: 2

  ==> DFT Potential <==

   => Composite Functional: WB97X-D <= 

    wB97X-D Hyb-GGA Exchange-Correlation Functional

    J.-D. Chai and M. Head-Gordon, Phys. Chem. Chem. Phys. 10, 6615 (2008)

    Deriv               =              1
    GGA                 =           TRUE
    Meta                =          FALSE

    Exchange Hybrid     =           TRUE
    MP2 Hybrid          =          FALSE

   => Exchange-Correlation Functionals <=

    1.0000   wB97D range-separated functional

   => Exact (HF) Exchange <=

    0.7780            HF,LR [omega = 0.2000]
    0.2220               HF 

   => Molecular Quadrature <=

    Radial Scheme          =       TREUTLER
    Pruning Scheme         =           FLAT
    Nuclear Scheme         =       TREUTLER

    BS radius alpha        =              1
    Pruning alpha          =              1
    Radial Points          =             75
    Spherical Points       =            302
    Total Points           =         520869
    Total Blocks           =           3863
    Max Points             =            256
    Max Functions          =            324

   => WB97X-D: Empirical Dispersion <=

    Chai and Head-Gordon Dispersion Correction
    Chai, J.-D.; Head-Gordon, M. (2010), J. Chem. Phys., 132: 6615-6620

        s6 =       1.000000

   => Loading Basis Set <=

    Name: (6-311++G** AUX)
    Role: JKFIT
    Keyword: DF_BASIS_SCF
    atoms 1             entry N          line   224 file /fsx/users/francis/anaconda3/envs/poltype-dev/share/psi4/basis/aug-cc-pvtz-jkfit.gbs 
    atoms 2-3, 6-12, 14 entry C          line   162 file /fsx/users/francis/anaconda3/envs/poltype-dev/share/psi4/basis/aug-cc-pvtz-jkfit.gbs 
    atoms 4-5           entry F          line   348 file /fsx/users/francis/anaconda3/envs/poltype-dev/share/psi4/basis/aug-cc-pvtz-jkfit.gbs 
    atoms 13            entry S          line   730 file /fsx/users/francis/anaconda3/envs/poltype-dev/share/psi4/basis/aug-cc-pvtz-jkfit.gbs 
    atoms 15-16         entry O          line   286 file /fsx/users/francis/anaconda3/envs/poltype-dev/share/psi4/basis/aug-cc-pvtz-jkfit.gbs 
    atoms 17-23         entry H          line    70 file /fsx/users/francis/anaconda3/envs/poltype-dev/share/psi4/basis/aug-cc-pvtz-jkfit.gbs 

  ==> Pre-Iterations <==

   -------------------------------------------------------
    Irrep   Nso     Nmo     Nalpha   Nbeta   Ndocc  Nsocc
   -------------------------------------------------------
     A        409     409       0       0       0       0
   -------------------------------------------------------
    Total     409     409      62      62      62       0
   -------------------------------------------------------

  ==> Integral Setup <==

  ==> DiskDFJK: Density-Fitted J/K Matrices <==

    J tasked:                  Yes
    K tasked:                  Yes
    wK tasked:                 Yes
    Omega:               2.000E-01
    OpenMP threads:              8
    Integrals threads:           8
    Memory [MiB]:             7977
    Algorithm:                Core
    Integral Cache:           NONE
    Schwarz Cutoff:          1E-12
    Fitting Condition:       1E-10

   => Auxiliary Basis Set <=

  Basis Set: (6-311++G** AUX)
    Blend: AUG-CC-PVTZ-JKFIT
    Number of shells: 590
    Number of basis function: 2028
    Number of Cartesian functions: 2530
    Spherical Harmonics?: true
    Max angular momentum: 4

  Cached 100.0% of DFT collocation blocks in 3.385 [GiB].

  Minimum eigenvalue in the overlap matrix is 2.1448701110E-07.
  Using Symmetric Orthogonalization.

  SCF Guess: Superposition of Atomic Densities via on-the-fly atomic UHF.

  ==> Iterations <==

                           Total Energy        Delta E     RMS |[F,P]|

   @DF-RKS iter SAD: -1187.89805243784190   -1.18790e+03   0.00000e+00 
   @DF-RKS iter   1: -1187.70393478654546    1.94118e-01   2.91561e-03 DIIS
   @DF-RKS iter   2: -1187.74950779904975   -4.55730e-02   2.99038e-03 DIIS
   @DF-RKS iter   3: -1188.30063500385199   -5.51127e-01   6.53537e-04 DIIS
   @DF-RKS iter   4: -1188.32440209067022   -2.37671e-02   2.41388e-04 DIIS
   @DF-RKS iter   5: -1188.32851975816516   -4.11767e-03   6.31116e-05 DIIS
   @DF-RKS iter   6: -1188.32896082474804   -4.41067e-04   1.91389e-05 DIIS
   @DF-RKS iter   7: -1188.32901852197983   -5.76972e-05   8.15174e-06 DIIS
   @DF-RKS iter   8: -1188.32903545555541   -1.69336e-05   3.31683e-06 DIIS
   @DF-RKS iter   9: -1188.32903864496757   -3.18941e-06   1.54361e-06 DIIS
   @DF-RKS iter  10: -1188.32903901969098   -3.74723e-07   5.82036e-07 DIIS
  Energy and wave function converged.


  ==> Post-Iterations <==

    Orbital Energies [Eh]
    ---------------------

    Doubly Occupied:                                                      

       1A    -89.054016     2A    -24.839739     3A    -24.837870  
       4A    -19.269037     5A    -19.260370     6A    -14.516897  
       7A    -10.484778     8A    -10.436548     9A    -10.411096  
      10A    -10.391005    11A    -10.374426    12A    -10.341354  
      13A    -10.334945    14A    -10.330939    15A    -10.330660  
      16A    -10.325327    17A     -8.094617    18A     -6.044147  
      19A     -6.039586    20A     -6.033781    21A     -1.389051  
      22A     -1.327620    23A     -1.192073    24A     -1.179646  
      25A     -1.098452    26A     -1.006764    27A     -0.944079  
      28A     -0.906002    29A     -0.889234    30A     -0.868675  
      31A     -0.801055    32A     -0.765738    33A     -0.753704  
      34A     -0.746078    35A     -0.697540    36A     -0.684243  
      37A     -0.669621    38A     -0.647089    39A     -0.631279  
      40A     -0.593922    41A     -0.588909    42A     -0.569117  
      43A     -0.563823    44A     -0.557756    45A     -0.556492  
      46A     -0.553786    47A     -0.548387    48A     -0.534567  
      49A     -0.518723    50A     -0.516021    51A     -0.508424  
      52A     -0.499467    53A     -0.491729    54A     -0.488699  
      55A     -0.475686    56A     -0.444346    57A     -0.432615  
      58A     -0.399254    59A     -0.395296    60A     -0.363954  
      61A     -0.342038    62A     -0.318681  

    Virtual:                                                              

      63A     -0.043337    64A      0.012424    65A      0.025066  
      66A      0.034005    67A      0.046514    68A      0.054237  
      69A      0.061621    70A      0.063555    71A      0.070354  
      72A      0.073570    73A      0.079232    74A      0.082752  
      75A      0.095859    76A      0.098266    77A      0.101164  
      78A      0.112018    79A      0.112868    80A      0.121362  
      81A      0.121796    82A      0.125504    83A      0.131845  
      84A      0.135269    85A      0.142072    86A      0.144060  
      87A      0.150882    88A      0.156885    89A      0.161942  
      90A      0.167479    91A      0.168760    92A      0.174270  
      93A      0.175211    94A      0.178265    95A      0.180090  
      96A      0.189930    97A      0.196752    98A      0.197778  
      99A      0.200847   100A      0.204552   101A      0.207591  
     102A      0.212152   103A      0.215954   104A      0.217050  
     105A      0.220601   106A      0.229971   107A      0.231294  
     108A      0.236396   109A      0.241602   110A      0.246632  
     111A      0.248993   112A      0.254461   113A      0.263051  
     114A      0.266144   115A      0.271289   116A      0.275532  
     117A      0.278687   118A      0.284961   119A      0.286905  
     120A      0.294980   121A      0.298984   122A      0.305592  
     123A      0.311930   124A      0.315126   125A      0.318028  
     126A      0.320725   127A      0.329907   128A      0.333144  
     129A      0.338590   130A      0.343948   131A      0.347815  
     132A      0.352933   133A      0.359298   134A      0.362444  
     135A      0.368115   136A      0.377309   137A      0.382857  
     138A      0.385599   139A      0.390198   140A      0.397697  
     141A      0.402802   142A      0.407149   143A      0.413883  
     144A      0.414565   145A      0.424672   146A      0.432080  
     147A      0.433971   148A      0.439700   149A      0.446552  
     150A      0.448279   151A      0.467651   152A      0.470552  
     153A      0.478654   154A      0.483404   155A      0.489688  
     156A      0.510242   157A      0.514053   158A      0.530575  
     159A      0.536065   160A      0.547087   161A      0.552495  
     162A      0.555047   163A      0.577894   164A      0.590362  
     165A      0.596541   166A      0.605004   167A      0.607958  
     168A      0.620901   169A      0.631173   170A      0.634184  
     171A      0.640824   172A      0.647657   173A      0.654761  
     174A      0.655682   175A      0.674784   176A      0.691166  
     177A      0.694170   178A      0.703801   179A      0.720964  
     180A      0.737883   181A      0.744669   182A      0.750475  
     183A      0.753516   184A      0.758610   185A      0.768317  
     186A      0.777907   187A      0.786715   188A      0.789860  
     189A      0.801486   190A      0.810580   191A      0.822763  
     192A      0.828330   193A      0.840088   194A      0.852977  
     195A      0.868165   196A      0.877249   197A      0.881680  
     198A      0.903006   199A      0.917088   200A      0.931872  
     201A      0.943084   202A      0.947371   203A      0.951342  
     204A      0.966388   205A      0.981211   206A      0.990626  
     207A      0.997952   208A      1.000390   209A      1.013213  
     210A      1.020325   211A      1.031478   212A      1.051815  
     213A      1.060782   214A      1.065477   215A      1.092413  
     216A      1.106150   217A      1.116294   218A      1.131528  
     219A      1.139392   220A      1.164077   221A      1.174019  
     222A      1.178701   223A      1.194915   224A      1.207050  
     225A      1.217936   226A      1.224828   227A      1.262871  
     228A      1.266146   229A      1.278394   230A      1.296380  
     231A      1.301440   232A      1.316206   233A      1.322265  
     234A      1.329679   235A      1.363765   236A      1.391370  
     237A      1.410585   238A      1.471290   239A      1.477085  
     240A      1.488822   241A      1.498306   242A      1.502812  
     243A      1.525137   244A      1.544197   245A      1.560117  
     246A      1.576242   247A      1.581608   248A      1.592848  
     249A      1.602116   250A      1.606906   251A      1.616413  
     252A      1.624861   253A      1.638338   254A      1.643388  
     255A      1.657785   256A      1.672112   257A      1.681090  
     258A      1.689728   259A      1.700539   260A      1.705890  
     261A      1.718458   262A      1.754962   263A      1.773518  
     264A      1.786626   265A      1.797112   266A      1.801050  
     267A      1.829232   268A      1.832547   269A      1.854778  
     270A      1.857011   271A      1.872557   272A      1.894439  
     273A      1.915040   274A      1.935195   275A      1.947416  
     276A      1.951997   277A      1.984809   278A      1.993099  
     279A      2.001398   280A      2.010276   281A      2.026792  
     282A      2.039194   283A      2.056791   284A      2.066121  
     285A      2.073319   286A      2.088780   287A      2.109616  
     288A      2.130686   289A      2.148938   290A      2.167380  
     291A      2.206529   292A      2.217421   293A      2.239783  
     294A      2.248556   295A      2.252582   296A      2.291875  
     297A      2.315132   298A      2.328748   299A      2.342347  
     300A      2.366433   301A      2.433926   302A      2.480177  
     303A      2.520176   304A      2.524472   305A      2.531375  
     306A      2.548172   307A      2.575494   308A      2.586970  
     309A      2.599766   310A      2.623034   311A      2.651251  
     312A      2.680563   313A      2.745070   314A      2.769659  
     315A      2.785040   316A      2.792372   317A      2.805048  
     318A      2.827398   319A      2.834540   320A      2.839741  
     321A      2.875655   322A      2.883259   323A      2.899748  
     324A      2.913268   325A      2.926327   326A      2.941471  
     327A      2.968966   328A      2.973269   329A      2.999623  
     330A      3.006779   331A      3.041795   332A      3.050168  
     333A      3.060354   334A      3.086016   335A      3.103034  
     336A      3.132517   337A      3.162400   338A      3.187345  
     339A      3.287219   340A      3.297347   341A      3.331364  
     342A      3.364631   343A      3.411261   344A      3.428655  
     345A      3.431448   346A      3.486248   347A      3.533534  
     348A      3.542222   349A      3.603404   350A      3.633255  
     351A      3.653358   352A      3.688860   353A      3.709873  
     354A      3.777990   355A      3.804571   356A      3.813457  
     357A      3.848094   358A      3.853064   359A      3.869522  
     360A      3.906330   361A      3.918131   362A      3.954827  
     363A      3.976609   364A      4.006663   365A      4.028684  
     366A      4.077935   367A      4.119444   368A      4.183174  
     369A      4.246317   370A      4.305100   371A      4.370311  
     372A      4.526714   373A      4.825216   374A      4.893269  
     375A      4.920301   376A      5.009058   377A      5.150202  
     378A      5.156825   379A      5.209462   380A      5.331187  
     381A      5.341520   382A      5.840538   383A      5.885104  
     384A      6.445635   385A      6.477174   386A      6.532482  
     387A      6.577274   388A      6.668952   389A      6.871366  
     390A      8.097829   391A     17.439196   392A     17.617832  
     393A     17.652734   394A     23.629143   395A     23.745116  
     396A     23.969599   397A     24.003120   398A     24.026685  
     399A     24.036446   400A     24.039342   401A     24.135077  
     402A     24.190801   403A     24.277656   404A     35.759658  
     405A     50.143626   406A     50.162223   407A     66.894703  
     408A     66.974402   409A    189.361885  

    Final Occupation by Irrep:
              A 
    DOCC [    62 ]

  @DF-RKS Final Energy: -1188.32903901969098

   => Energetics <=

    Nuclear Repulsion Energy =           1186.6843128495895598
    One-Electron Energy =               -3988.3337799713749519
    Two-Electron Energy =                1703.0711301069143246
    DFT Exchange-Correlation Energy =     -89.7373120638336559
    Empirical Dispersion Energy =          -0.0133899409864576
    VV10 Nonlocal Energy =                  0.0000000000000000
    Total Energy =                      -1188.3290390196909811

Computation Completed


Properties will be evaluated at   0.000000,   0.000000,   0.000000 [a0]

Properties computed using the SCF density matrix

  Nuclear Dipole Moment: [e a0]
     X:    26.1839      Y:    -0.5669      Z:    -4.6486

  Electronic Dipole Moment: [e a0]
     X:   -22.9346      Y:     0.1406      Z:     4.0208

  Dipole Moment: [e a0]
     X:     3.2493      Y:    -0.4263      Z:    -0.6278     Total:     3.3367

  Dipole Moment: [D]
     X:     8.2589      Y:    -1.0834      Z:    -1.5958     Total:     8.4811


*** tstop() called on cpu-spot-dy-c5n2xlarge-1 at Tue Jun 22 07:45:05 2021
Module time:
	user time   =     629.64 seconds =      10.49 minutes
	system time =      10.33 seconds =       0.17 minutes
	total time  =         87 seconds =       1.45 minutes
Total time:
	user time   =     629.64 seconds =      10.49 minutes
	system time =      10.33 seconds =       0.17 minutes
	total time  =         87 seconds =       1.45 minutes


Properties will be evaluated at   0.000000,   0.000000,   0.000000 [a0]
OEProp: No title given, name of density matrix used for the following properties is 'SCF density'


  Wiberg Bond Indices using Orthogonal Lowdin Orbitals:

  Irrep: 1 Size: 23 x 23

                 1                   2                   3                   4                   5

    1     0.00000000000000     1.31942260040172     0.10113183444057     0.01442475192963     0.01224092166695
    2     1.31942260040172     0.00000000000000     0.88346047122819     0.11141005831597     0.10983041868485
    3     0.10113183444057     0.88346047122819     0.00000000000000     1.35177327123520     1.36923310780418
    4     0.01442475192963     0.11141005831597     1.35177327123520     0.00000000000000     0.13800847776050
    5     0.01224092166695     0.10983041868485     1.36923310780418     0.13800847776050     0.00000000000000
    6     0.03382402290917     0.07384942347154     0.89624234795549     0.10984605621701     0.10752190389547
    7     0.11655026302756     0.03547532955832     0.09976739097963     0.01442394607601     0.01266953343102
    8     0.01511215670718     0.00371616702426     0.01345980165227     0.00205583704507     0.00197380430105
    9     0.01443590022645     0.00533696454671     0.00254618410627     0.00038474479890     0.00038495579665
   10     0.01733946438558     0.00307113079019     0.00149874124205     0.00053919440975     0.00036646714748
   11     0.13425751315655     0.02683719400185     0.00434926953562     0.00067313325478     0.00053289224708
   12     1.19022136796896     0.09715261521080     0.03127074152542     0.00521997998838     0.00401217875157
   13     0.00290416460688     0.00103693058199     0.00073810802384     0.00036858021695     0.00024083860309
   14     0.00050093056761     0.00016685262662     0.00008723921741     0.00001978220913     0.00001785228503
   15     0.24770205348183     2.29185560225502     0.15055295930769     0.03698655241262     0.04117454357488
   16     0.00483407082642     0.01578919887579     0.15966455623797     0.04004246829150     0.04424799350405
   17     0.00071527031533     0.00022386255545     0.00047874971104     0.00006005087668     0.00007043921520
   18     0.00129635193667     0.00048856969447     0.00211181883083     0.00029075873503     0.00034026321809
   19     0.91357070116429     0.07310385285157     0.01371229812482     0.00162606508307     0.00178474465491
   20     0.02340607733127     0.00232611556564     0.00073414209358     0.00010623176573     0.00011652930375
   21     0.00009452004610     0.00003848943691     0.00001738895051     0.00000691234218     0.00000557585865
   22     0.00008961339664     0.00002924033793     0.00005247644799     0.00000603848605     0.00000704985329
   23     0.00008757148571     0.00003937222400     0.00002035500053     0.00001062361268     0.00000637621214

                 6                   7                   8                   9                  10

    1     0.03382402290917     0.11655026302756     0.01511215670718     0.01443590022645     0.01733946438558
    2     0.07384942347154     0.03547532955832     0.00371616702426     0.00533696454671     0.00307113079019
    3     0.89624234795549     0.09976739097963     0.01345980165227     0.00254618410627     0.00149874124205
    4     0.10984605621701     0.01442394607601     0.00205583704507     0.00038474479890     0.00053919440975
    5     0.10752190389547     0.01266953343102     0.00197380430105     0.00038495579665     0.00036646714748
    6     0.00000000000000     1.06977639553080     0.12117336086251     0.02070642907388     0.01519767739430
    7     1.06977639553080     0.00000000000000     1.34025493645307     0.13205653106330     0.10740919335105
    8     0.12117336086251     1.34025493645307     0.00000000000000     1.50661192230410     0.13613649623406
    9     0.02070642907388     0.13205653106330     1.50661192230410     0.00000000000000     1.37245598662337
   10     0.01519767739430     0.10740919335105     0.13613649623406     1.37245598662337     0.00000000000000
   11     0.01591457528292     0.11984581581106     0.12061095510621     0.12532925795531     1.41538439635832
   12     0.11446425056752     1.27346858369753     0.12400510185723     0.10722339698625     0.12916175019410
   13     0.00691317945988     0.02290260417565     0.02578552261393     0.14197317113634     1.30995959204178
   14     0.00032345361207     0.00150055982921     0.00397842218499     0.04427313105062     0.07843856809683
   15     0.01527340676315     0.00894301705679     0.00104407179864     0.00454575644630     0.00199377496946
   16     2.31210280563023     0.16628199103001     0.07558629061197     0.00639530326055     0.01638035291512
   17     0.00148477466010     0.01231333348774     0.08411241049123     0.85919216290853     0.07430187878159
   18     0.02024730021017     0.07691553087781     0.85199785045482     0.08059015506517     0.01214540724655
   19     0.00255921018082     0.01255759940715     0.00171011218091     0.00133206955394     0.00198687738707
   20     0.00170135952140     0.01148271341883     0.00557793549052     0.01253934229361     0.07554895262879
   21     0.00010244624028     0.00030824208473     0.00022035412480     0.00264344198909     0.00957746047339
   22     0.00011188637962     0.00063472588040     0.00248811997761     0.02507414966197     0.02155251892714
   23     0.00014960724526     0.00044341661664     0.00022787294751     0.00307043178004     0.00920393025985

                11                  12                  13                  14                  15

    1     0.13425751315655     1.19022136796896     0.00290416460688     0.00050093056761     0.24770205348183
    2     0.02683719400185     0.09715261521080     0.00103693058199     0.00016685262662     2.29185560225502
    3     0.00434926953562     0.03127074152542     0.00073810802384     0.00008723921741     0.15055295930769
    4     0.00067313325478     0.00521997998838     0.00036858021695     0.00001978220913     0.03698655241262
    5     0.00053289224708     0.00401217875157     0.00024083860309     0.00001785228503     0.04117454357488
    6     0.01591457528292     0.11446425056752     0.00691317945988     0.00032345361207     0.01527340676315
    7     0.11984581581106     1.27346858369753     0.02290260417565     0.00150055982921     0.00894301705679
    8     0.12061095510621     0.12400510185723     0.02578552261393     0.00397842218499     0.00104407179864
    9     0.12532925795531     0.10722339698625     0.14197317113634     0.04427313105062     0.00454575644630
   10     1.41538439635832     0.12916175019410     1.30995959204178     0.07843856809683     0.00199377496946
   11     0.00000000000000     1.39134150876325     0.18700507186886     0.01855770394918     0.01258224792392
   12     1.39134150876325     0.00000000000000     0.02628502831850     0.00317445901268     0.03052783092413
   13     0.18700507186886     0.02628502831850     0.00000000000000     1.23611389916712     0.00085235084567
   14     0.01855770394918     0.00317445901268     1.23611389916712     0.00000000000000     0.00010658008792
   15     0.01258224792392     0.03052783092413     0.00085235084567     0.00010658008792     0.00000000000000
   16     0.00486488911275     0.04167916901686     0.00730184409633     0.00024942262072     0.00544361322935
   17     0.01224350762338     0.00525961009962     0.01946601918838     0.02178062273465     0.00017110356477
   18     0.00529385136325     0.01197988681858     0.00219007834339     0.00044130846747     0.00019376671266
   19     0.02037795885366     0.06559638038279     0.00033847761464     0.00006836078421     0.02853824116502
   20     0.84964351998301     0.07792968313809     0.03401548003415     0.00268816969802     0.00067344651475
   21     0.00212195894893     0.00058671612111     0.07155484692406     0.94696389577545     0.00003629247482
   22     0.00232670601385     0.00039430182799     0.05521006427520     0.92950114588914     0.00000824055037
   23     0.00211302798676     0.00057366003847     0.07023497565099     0.94766222411389     0.00004041192441

                16                  17                  18                  19                  20

    1     0.00483407082642     0.00071527031533     0.00129635193667     0.91357070116429     0.02340607733127
    2     0.01578919887579     0.00022386255545     0.00048856969447     0.07310385285157     0.00232611556564
    3     0.15966455623797     0.00047874971104     0.00211181883083     0.01371229812482     0.00073414209358
    4     0.04004246829150     0.00006005087668     0.00029075873503     0.00162606508307     0.00010623176573
    5     0.04424799350405     0.00007043921520     0.00034026321809     0.00178474465491     0.00011652930375
    6     2.31210280563023     0.00148477466010     0.02024730021017     0.00255921018082     0.00170135952140
    7     0.16628199103001     0.01231333348774     0.07691553087781     0.01255759940715     0.01148271341883
    8     0.07558629061197     0.08411241049123     0.85199785045482     0.00171011218091     0.00557793549052
    9     0.00639530326055     0.85919216290853     0.08059015506517     0.00133206955394     0.01253934229361
   10     0.01638035291512     0.07430187878159     0.01214540724655     0.00198687738707     0.07554895262879
   11     0.00486488911275     0.01224350762338     0.00529385136325     0.02037795885366     0.84964351998301
   12     0.04167916901686     0.00525961009962     0.01197988681858     0.06559638038279     0.07792968313809
   13     0.00730184409633     0.01946601918838     0.00219007834339     0.00033847761464     0.03401548003415
   14     0.00024942262072     0.02178062273465     0.00044130846747     0.00006836078421     0.00268816969802
   15     0.00544361322935     0.00017110356477     0.00019376671266     0.02853824116502     0.00067344651475
   16     0.00000000000000     0.00039052221684     0.02119369419789     0.00051845963075     0.00060194953765
   17     0.00039052221684     0.00000000000000     0.01047480181888     0.00010708800963     0.00117357243084
   18     0.02119369419789     0.01047480181888     0.00000000000000     0.00060821965583     0.00047957199241
   19     0.00051845963075     0.00010708800963     0.00060821965583     0.00000000000000     0.00651299231752
   20     0.00060194953765     0.00117357243084     0.00047957199241     0.00651299231752     0.00000000000000
   21     0.00010081328315     0.00131671803996     0.00003226470523     0.00000851130074     0.00031063104270
   22     0.00004545741455     0.01793202173019     0.00019780477333     0.00001653634899     0.00062001882375
   23     0.00015383949338     0.00140118502297     0.00003114048934     0.00000816496789     0.00026746542426

                21                  22                  23

    1     0.00009452004610     0.00008961339664     0.00008757148571
    2     0.00003848943691     0.00002924033793     0.00003937222400
    3     0.00001738895051     0.00005247644799     0.00002035500053
    4     0.00000691234218     0.00000603848605     0.00001062361268
    5     0.00000557585865     0.00000704985329     0.00000637621214
    6     0.00010244624028     0.00011188637962     0.00014960724526
    7     0.00030824208473     0.00063472588040     0.00044341661664
    8     0.00022035412480     0.00248811997761     0.00022787294751
    9     0.00264344198909     0.02507414966197     0.00307043178004
   10     0.00957746047339     0.02155251892714     0.00920393025985
   11     0.00212195894893     0.00232670601385     0.00211302798676
   12     0.00058671612111     0.00039430182799     0.00057366003847
   13     0.07155484692406     0.05521006427520     0.07023497565099
   14     0.94696389577545     0.92950114588914     0.94766222411389
   15     0.00003629247482     0.00000824055037     0.00004041192441
   16     0.00010081328315     0.00004545741455     0.00015383949338
   17     0.00131671803996     0.01793202173019     0.00140118502297
   18     0.00003226470523     0.00019780477333     0.00003114048934
   19     0.00000851130074     0.00001653634899     0.00000816496789
   20     0.00031063104270     0.00062001882375     0.00026746542426
   21     0.00000000000000     0.04269248077426     0.03992183281393
   22     0.04269248077426     0.00000000000000     0.04184999772876
   23     0.03992183281393     0.04184999772876     0.00000000000000



  Atomic Valences: 

 #  #
 Irrep: 1
      1:  4.1641621
      2:  5.0546605
      3:  5.0829033
      4:  1.8282835
      5:  1.8447869
      6:  4.9394859
      7:  4.6359817
      8:  4.4378395
      9:  4.4691014
     10:  4.8096498
     11:  4.4722070
     12:  4.7315282
     13:  3.2233908
     14:  4.2366146
     15:  2.8792459
     16:  2.9238687
     17:  1.1246697
     18:  1.0995404
     19:  1.1466429
     20:  1.1084559
     21:  1.1186618
     22:  1.1408406
     23:  1.1175175


    Psi4 stopped on: Tuesday, 22 June 2021 07:45AM
    Psi4 wall time for execution: 0:01:27.07

*** Psi4 exiting successfully. Buy a developer a beer!
