
    -----------------------------------------------------------------------
          Psi4: An Open-Source Ab Initio Electronic Structure Package
                               Psi4 1.3.2 release

                         Git: Rev {HEAD} ecbda83 


    R. M. Parrish, L. A. Burns, D. G. A. Smith, A. C. Simmonett,
    A. E. DePrince III, E. G. Hohenstein, U. Bozkaya, A. Yu. Sokolov,
    R. Di Remigio, R. M. Richard, J. F. Gonthier, A. M. James,
    H. R. McAlexander, A. Kumar, M. Saitow, X. Wang, B. P. Pritchard,
    P. Verma, H. F. Schaefer III, K. Patkowski, R. A. King, E. F. Valeev,
    F. A. Evangelista, J. M. Turney, T. D. Crawford, and C. D. Sherrill,
    J. Chem. Theory Comput. 13(7) pp 3185--3197 (2017).
    (doi: 10.1021/acs.jctc.7b00174)


                         Additional Contributions by
    P. Kraus, H. Kruse, M. H. Lechner, M. C. Schieber, R. A. Shaw,
    A. Alenaizan, R. Galvelis, Z. L. Glick, S. Lehtola, and J. P. Misiewicz

    -----------------------------------------------------------------------


    Psi4 started on: Tuesday, 22 June 2021 07:20AM

    Process ID: 31802
    Host:       cpu-spot-dy-c5n2xlarge-1
    PSIDATADIR: /fsx/users/francis/anaconda3/envs/poltype-dev/share/psi4
    Memory:     500.0 MiB
    Threads:    1
    
  ==> Input File <==

--------------------------------------------------------------------------
molecule { 
0 1
 N   -0.445575   -1.471085    0.613238
 C   -1.751108   -1.446637    1.027233
 C   -2.499035   -0.106585    0.825273
 F   -3.633195   -0.373566    0.135940
 F   -2.846456    0.344394    2.057921
 C   -1.746602    1.041600    0.098177
 C   -0.346623    0.798577   -0.263489
 C    0.406337    1.810051   -0.879334
 C    1.727255    1.610096   -1.216328
 C    2.332598    0.362311   -0.965671
 C    1.600278   -0.646698   -0.344448
 C    0.264269   -0.432663    0.003983
 S    4.028838    0.200353   -1.434071
 C    4.665674   -1.085732   -0.330574
 O   -2.296588   -2.399523    1.533747
 O   -2.346083    2.070861   -0.119907
 H    2.306550    2.408725   -1.668571
 H   -0.079159    2.763063   -1.064718
 H    0.025987   -2.354277    0.765875
 H    2.047714   -1.612712   -0.135039
 H    4.656074   -0.754050    0.710468
 H    4.145405   -2.038903   -0.445018
 H    5.705044   -1.236429   -0.632614
}
memory 16GB
set_num_threads(8)
psi4_io.set_default_path("/scratch/Psi4-ligand")
set freeze_core True
E, wfn = energy('wb97x-d/6-311++g**',return_wfn=True)
oeprop(wfn,"WIBERG_LOWDIN_INDICES")
clean()
--------------------------------------------------------------------------

  Memory set to  14.901 GiB by Python driver.
  Threads set to 8 by Python driver.

*** tstart() called on cpu-spot-dy-c5n2xlarge-1
*** at Tue Jun 22 07:20:02 2021

   => Loading Basis Set <=

    Name: 6-311++G**
    Role: ORBITAL
    Keyword: BASIS
    atoms 1             entry N          line   140 file /fsx/users/francis/anaconda3/envs/poltype-dev/share/psi4/basis/6-311ppgss.gbs 
    atoms 2-3, 6-12, 14 entry C          line   119 file /fsx/users/francis/anaconda3/envs/poltype-dev/share/psi4/basis/6-311ppgss.gbs 
    atoms 4-5           entry F          line   182 file /fsx/users/francis/anaconda3/envs/poltype-dev/share/psi4/basis/6-311ppgss.gbs 
    atoms 13            entry S          line   419 file /fsx/users/francis/anaconda3/envs/poltype-dev/share/psi4/basis/6-311ppgss.gbs 
    atoms 15-16         entry O          line   161 file /fsx/users/francis/anaconda3/envs/poltype-dev/share/psi4/basis/6-311ppgss.gbs 
    atoms 17-23         entry H          line    42 file /fsx/users/francis/anaconda3/envs/poltype-dev/share/psi4/basis/6-311ppgss.gbs 


         ---------------------------------------------------------
                                   SCF
               by Justin Turney, Rob Parrish, Andy Simmonett
                          and Daniel G. A. Smith
                              RKS Reference
                        8 Threads,  15258 MiB Core
         ---------------------------------------------------------

  ==> Geometry <==

    Molecular point group: c1
    Full point group: C1

    Geometry (in Angstrom), charge = 0, multiplicity = 1:

       Center              X                  Y                   Z               Mass       
    ------------   -----------------  -----------------  -----------------  -----------------
         N           -0.445575117180    -1.471085003109     0.613237897006    14.003074004430
         C           -1.751108117180    -1.446637003109     1.027232897006    12.000000000000
         C           -2.499035117180    -0.106585003109     0.825272897006    12.000000000000
         F           -3.633195117180    -0.373566003109     0.135939897006    18.998403162730
         F           -2.846456117180     0.344393996891     2.057920897006    18.998403162730
         C           -1.746602117180     1.041599996891     0.098176897006    12.000000000000
         C           -0.346623117180     0.798576996891    -0.263489102994    12.000000000000
         C            0.406336882820     1.810050996891    -0.879334102994    12.000000000000
         C            1.727254882820     1.610095996891    -1.216328102994    12.000000000000
         C            2.332597882820     0.362310996891    -0.965671102994    12.000000000000
         C            1.600277882820    -0.646698003109    -0.344448102994    12.000000000000
         C            0.264268882820    -0.432663003109     0.003982897006    12.000000000000
         S            4.028837882820     0.200352996891    -1.434071102994    31.972071174400
         C            4.665673882820    -1.085732003109    -0.330574102994    12.000000000000
         O           -2.296588117180    -2.399523003109     1.533746897006    15.994914619570
         O           -2.346083117180     2.070860996891    -0.119907102994    15.994914619570
         H            2.306549882820     2.408724996891    -1.668571102994     1.007825032230
         H           -0.079159117180     2.763062996891    -1.064718102994     1.007825032230
         H            0.025986882820    -2.354277003109     0.765874897006     1.007825032230
         H            2.047713882820    -1.612712003109    -0.135039102994     1.007825032230
         H            4.656073882820    -0.754050003109     0.710467897006     1.007825032230
         H            4.145404882820    -2.038903003109    -0.445018102994     1.007825032230
         H            5.705043882820    -1.236429003109    -0.632614102994     1.007825032230

  Running in c1 symmetry.

  Rotational constants: A =      0.03601  B =      0.00872  C =      0.00735 [cm^-1]
  Rotational constants: A =   1079.52300  B =    261.27349  C =    220.20790 [MHz]
  Nuclear repulsion = 1190.753221937547323

  Charge       = 0
  Multiplicity = 1
  Electrons    = 124
  Nalpha       = 62
  Nbeta        = 62

  ==> Algorithm <==

  SCF Algorithm Type is DF.
  DIIS enabled.
  MOM disabled.
  Fractional occupation disabled.
  Guess Type is SAD.
  Energy threshold   = 1.00e-06
  Density threshold  = 1.00e-06
  Integral threshold = 0.00e+00

  ==> Primary Basis <==

  Basis Set: 6-311++G**
    Blend: 6-311++G**
    Number of shells: 199
    Number of basis function: 409
    Number of Cartesian functions: 425
    Spherical Harmonics?: true
    Max angular momentum: 2

  ==> DFT Potential <==

   => Composite Functional: WB97X-D <= 

    wB97X-D Hyb-GGA Exchange-Correlation Functional

    J.-D. Chai and M. Head-Gordon, Phys. Chem. Chem. Phys. 10, 6615 (2008)

    Deriv               =              1
    GGA                 =           TRUE
    Meta                =          FALSE

    Exchange Hybrid     =           TRUE
    MP2 Hybrid          =          FALSE

   => Exchange-Correlation Functionals <=

    1.0000   wB97D range-separated functional

   => Exact (HF) Exchange <=

    0.7780            HF,LR [omega = 0.2000]
    0.2220               HF 

   => Molecular Quadrature <=

    Radial Scheme          =       TREUTLER
    Pruning Scheme         =           FLAT
    Nuclear Scheme         =       TREUTLER

    BS radius alpha        =              1
    Pruning alpha          =              1
    Radial Points          =             75
    Spherical Points       =            302
    Total Points           =         520866
    Total Blocks           =           3849
    Max Points             =            256
    Max Functions          =            318

   => WB97X-D: Empirical Dispersion <=

    Chai and Head-Gordon Dispersion Correction
    Chai, J.-D.; Head-Gordon, M. (2010), J. Chem. Phys., 132: 6615-6620

        s6 =       1.000000

   => Loading Basis Set <=

    Name: (6-311++G** AUX)
    Role: JKFIT
    Keyword: DF_BASIS_SCF
    atoms 1             entry N          line   224 file /fsx/users/francis/anaconda3/envs/poltype-dev/share/psi4/basis/aug-cc-pvtz-jkfit.gbs 
    atoms 2-3, 6-12, 14 entry C          line   162 file /fsx/users/francis/anaconda3/envs/poltype-dev/share/psi4/basis/aug-cc-pvtz-jkfit.gbs 
    atoms 4-5           entry F          line   348 file /fsx/users/francis/anaconda3/envs/poltype-dev/share/psi4/basis/aug-cc-pvtz-jkfit.gbs 
    atoms 13            entry S          line   730 file /fsx/users/francis/anaconda3/envs/poltype-dev/share/psi4/basis/aug-cc-pvtz-jkfit.gbs 
    atoms 15-16         entry O          line   286 file /fsx/users/francis/anaconda3/envs/poltype-dev/share/psi4/basis/aug-cc-pvtz-jkfit.gbs 
    atoms 17-23         entry H          line    70 file /fsx/users/francis/anaconda3/envs/poltype-dev/share/psi4/basis/aug-cc-pvtz-jkfit.gbs 

  ==> Pre-Iterations <==

   -------------------------------------------------------
    Irrep   Nso     Nmo     Nalpha   Nbeta   Ndocc  Nsocc
   -------------------------------------------------------
     A        409     409       0       0       0       0
   -------------------------------------------------------
    Total     409     409      62      62      62       0
   -------------------------------------------------------

  ==> Integral Setup <==

  ==> DiskDFJK: Density-Fitted J/K Matrices <==

    J tasked:                  Yes
    K tasked:                  Yes
    wK tasked:                 Yes
    Omega:               2.000E-01
    OpenMP threads:              8
    Integrals threads:           8
    Memory [MiB]:             7939
    Algorithm:                Core
    Integral Cache:           NONE
    Schwarz Cutoff:          1E-12
    Fitting Condition:       1E-10

   => Auxiliary Basis Set <=

  Basis Set: (6-311++G** AUX)
    Blend: AUG-CC-PVTZ-JKFIT
    Number of shells: 590
    Number of basis function: 2028
    Number of Cartesian functions: 2530
    Spherical Harmonics?: true
    Max angular momentum: 4

  Cached 100.0% of DFT collocation blocks in 3.422 [GiB].

  Minimum eigenvalue in the overlap matrix is 1.7295477528E-07.
  Using Symmetric Orthogonalization.

  SCF Guess: Superposition of Atomic Densities via on-the-fly atomic UHF.

  ==> Iterations <==

                           Total Energy        Delta E     RMS |[F,P]|

   @DF-RKS iter SAD: -1187.89849242866740   -1.18790e+03   0.00000e+00 
   @DF-RKS iter   1: -1187.71630503832239    1.82187e-01   2.90237e-03 DIIS
   @DF-RKS iter   2: -1187.76774682970677   -5.14418e-02   2.96469e-03 DIIS
   @DF-RKS iter   3: -1188.30366919406993   -5.35922e-01   6.58542e-04 DIIS
   @DF-RKS iter   4: -1188.32793228430114   -2.42631e-02   2.33641e-04 DIIS
   @DF-RKS iter   5: -1188.33181991633251   -3.88763e-03   6.18953e-05 DIIS
   @DF-RKS iter   6: -1188.33224832918791   -4.28413e-04   1.95787e-05 DIIS
   @DF-RKS iter   7: -1188.33230692236953   -5.85932e-05   8.02184e-06 DIIS
   @DF-RKS iter   8: -1188.33232449911316   -1.75767e-05   3.21150e-06 DIIS
   @DF-RKS iter   9: -1188.33232775071838   -3.25161e-06   1.50422e-06 DIIS
   @DF-RKS iter  10: -1188.33232810538902   -3.54671e-07   6.32675e-07 DIIS
  Energy and wave function converged.


  ==> Post-Iterations <==

    Orbital Energies [Eh]
    ---------------------

    Doubly Occupied:                                                      

       1A    -89.052225     2A    -24.840948     3A    -24.839734  
       4A    -19.270642     5A    -19.262517     6A    -14.519264  
       7A    -10.486472     8A    -10.438514     9A    -10.412422  
      10A    -10.393126    11A    -10.371200    12A    -10.342308  
      13A    -10.333984    14A    -10.333344    15A    -10.332634  
      16A    -10.323090    17A     -8.092789    18A     -6.042313  
      19A     -6.037904    20A     -6.031824    21A     -1.390462  
      22A     -1.329090    23A     -1.194441    24A     -1.181467  
      25A     -1.100761    26A     -1.006719    27A     -0.944753  
      28A     -0.905907    29A     -0.891879    30A     -0.867908  
      31A     -0.799098    32A     -0.772267    33A     -0.755131  
      34A     -0.742063    35A     -0.698765    36A     -0.683785  
      37A     -0.671188    38A     -0.649641    39A     -0.630370  
      40A     -0.594158    41A     -0.586225    42A     -0.571250  
      43A     -0.565992    44A     -0.563113    45A     -0.556181  
      46A     -0.553817    47A     -0.549178    48A     -0.535175  
      49A     -0.526509    50A     -0.517817    51A     -0.510005  
      52A     -0.503514    53A     -0.490927    54A     -0.482338  
      55A     -0.471819    56A     -0.446542    57A     -0.434565  
      58A     -0.397048    59A     -0.394039    60A     -0.365608  
      61A     -0.345593    62A     -0.320827  

    Virtual:                                                              

      63A     -0.045669    64A      0.010952    65A      0.021748  
      66A      0.041121    67A      0.041301    68A      0.052851  
      69A      0.055281    70A      0.065038    71A      0.068704  
      72A      0.072253    73A      0.078387    74A      0.089374  
      75A      0.097908    76A      0.098347    77A      0.103776  
      78A      0.107479    79A      0.111121    80A      0.118645  
      81A      0.126481    82A      0.128618    83A      0.132377  
      84A      0.134228    85A      0.140309    86A      0.146420  
      87A      0.150117    88A      0.154756    89A      0.159179  
      90A      0.163229    91A      0.168993    92A      0.169970  
      93A      0.176611    94A      0.184288    95A      0.186199  
      96A      0.187113    97A      0.191408    98A      0.195542  
      99A      0.198214   100A      0.199110   101A      0.204241  
     102A      0.209208   103A      0.214682   104A      0.217585  
     105A      0.226598   106A      0.228081   107A      0.231420  
     108A      0.240049   109A      0.242917   110A      0.246353  
     111A      0.248504   112A      0.251820   113A      0.255981  
     114A      0.261539   115A      0.269388   116A      0.269451  
     117A      0.278477   118A      0.286379   119A      0.287843  
     120A      0.289604   121A      0.298407   122A      0.303704  
     123A      0.306966   124A      0.308029   125A      0.313521  
     126A      0.319274   127A      0.320085   128A      0.334996  
     129A      0.338984   130A      0.343823   131A      0.349118  
     132A      0.354480   133A      0.359186   134A      0.362844  
     135A      0.369421   136A      0.373304   137A      0.376864  
     138A      0.382718   139A      0.384685   140A      0.389706  
     141A      0.393003   142A      0.397409   143A      0.404195  
     144A      0.413894   145A      0.417478   146A      0.427324  
     147A      0.428911   148A      0.435686   149A      0.443985  
     150A      0.449346   151A      0.455439   152A      0.466098  
     153A      0.468532   154A      0.474967   155A      0.488656  
     156A      0.514200   157A      0.516275   158A      0.527985  
     159A      0.535624   160A      0.538720   161A      0.542753  
     162A      0.562434   163A      0.581481   164A      0.584531  
     165A      0.603960   166A      0.610201   167A      0.614543  
     168A      0.618309   169A      0.628558   170A      0.632568  
     171A      0.636499   172A      0.652482   173A      0.662810  
     174A      0.673280   175A      0.685555   176A      0.691047  
     177A      0.698627   178A      0.705935   179A      0.723909  
     180A      0.726539   181A      0.742018   182A      0.746956  
     183A      0.752631   184A      0.755880   185A      0.764533  
     186A      0.767025   187A      0.778639   188A      0.789048  
     189A      0.801581   190A      0.813071   191A      0.817983  
     192A      0.830935   193A      0.849578   194A      0.858552  
     195A      0.871712   196A      0.876136   197A      0.888844  
     198A      0.904927   199A      0.911867   200A      0.929158  
     201A      0.942040   202A      0.943914   203A      0.964400  
     204A      0.969907   205A      0.974305   206A      0.987763  
     207A      0.993282   208A      1.002301   209A      1.011874  
     210A      1.018794   211A      1.026335   212A      1.045010  
     213A      1.061882   214A      1.077956   215A      1.095750  
     216A      1.103776   217A      1.110297   218A      1.127110  
     219A      1.134411   220A      1.160410   221A      1.173425  
     222A      1.181063   223A      1.203328   224A      1.208093  
     225A      1.213006   226A      1.226670   227A      1.234995  
     228A      1.264630   229A      1.268895   230A      1.290120  
     231A      1.294764   232A      1.311556   233A      1.322665  
     234A      1.331702   235A      1.365258   236A      1.385884  
     237A      1.410281   238A      1.469221   239A      1.473038  
     240A      1.482137   241A      1.497309   242A      1.522696  
     243A      1.526944   244A      1.542936   245A      1.559470  
     246A      1.576620   247A      1.582969   248A      1.592187  
     249A      1.600417   250A      1.605117   251A      1.612197  
     252A      1.632770   253A      1.640107   254A      1.650015  
     255A      1.661402   256A      1.671991   257A      1.674502  
     258A      1.688462   259A      1.695757   260A      1.706834  
     261A      1.725447   262A      1.757025   263A      1.761295  
     264A      1.775814   265A      1.795665   266A      1.818908  
     267A      1.823324   268A      1.845451   269A      1.850298  
     270A      1.864137   271A      1.886952   272A      1.900033  
     273A      1.911140   274A      1.934159   275A      1.947989  
     276A      1.952517   277A      1.986925   278A      1.996183  
     279A      2.003310   280A      2.011478   281A      2.031621  
     282A      2.037272   283A      2.041341   284A      2.067892  
     285A      2.072545   286A      2.091159   287A      2.096765  
     288A      2.108677   289A      2.138443   290A      2.169262  
     291A      2.182482   292A      2.213988   293A      2.242627  
     294A      2.253266   295A      2.256332   296A      2.286672  
     297A      2.314317   298A      2.326114   299A      2.337387  
     300A      2.372514   301A      2.434710   302A      2.477693  
     303A      2.517066   304A      2.520783   305A      2.528251  
     306A      2.534925   307A      2.582633   308A      2.606492  
     309A      2.618670   310A      2.645700   311A      2.648102  
     312A      2.714133   313A      2.749990   314A      2.759681  
     315A      2.787285   316A      2.795456   317A      2.805641  
     318A      2.814720   319A      2.833198   320A      2.838014  
     321A      2.850113   322A      2.885120   323A      2.911612  
     324A      2.914665   325A      2.929981   326A      2.941316  
     327A      2.955506   328A      2.973957   329A      2.986390  
     330A      3.038123   331A      3.039295   332A      3.051733  
     333A      3.061888   334A      3.091057   335A      3.100054  
     336A      3.132837   337A      3.165164   338A      3.202386  
     339A      3.285745   340A      3.300382   341A      3.315466  
     342A      3.366691   343A      3.418825   344A      3.427825  
     345A      3.429444   346A      3.479423   347A      3.534425  
     348A      3.542409   349A      3.601503   350A      3.633177  
     351A      3.653479   352A      3.690164   353A      3.710748  
     354A      3.781879   355A      3.796098   356A      3.822644  
     357A      3.845365   358A      3.851539   359A      3.856235  
     360A      3.901744   361A      3.915163   362A      3.957315  
     363A      3.976168   364A      4.004802   365A      4.027449  
     366A      4.076655   367A      4.116349   368A      4.172842  
     369A      4.250496   370A      4.307260   371A      4.368401  
     372A      4.527513   373A      4.824362   374A      4.891323  
     375A      4.917214   376A      5.003644   377A      5.147643  
     378A      5.156292   379A      5.209846   380A      5.330179  
     381A      5.340862   382A      5.838045   383A      5.884492  
     384A      6.438768   385A      6.471554   386A      6.536352  
     387A      6.579326   388A      6.668184   389A      6.867679  
     390A      8.087144   391A     17.449843   392A     17.612953  
     393A     17.649118   394A     23.632435   395A     23.745248  
     396A     23.970148   397A     23.998961   398A     24.012554  
     399A     24.030974   400A     24.039799   401A     24.135010  
     402A     24.191624   403A     24.280627   404A     35.758252  
     405A     50.143187   406A     50.161851   407A     66.891838  
     408A     66.974033   409A    189.347390  

    Final Occupation by Irrep:
              A 
    DOCC [    62 ]

  @DF-RKS Final Energy: -1188.33232810538902

   => Energetics <=

    Nuclear Repulsion Energy =           1190.7532219375473233
    One-Electron Energy =               -3996.3888654112488439
    Two-Electron Energy =                1707.0539583466897966
    DFT Exchange-Correlation Energy =     -89.7369668202372708
    Empirical Dispersion Energy =          -0.0136761581398876
    VV10 Nonlocal Energy =                  0.0000000000000000
    Total Energy =                      -1188.3323281053890241

Computation Completed


Properties will be evaluated at   0.000000,   0.000000,   0.000000 [a0]

Properties computed using the SCF density matrix

  Nuclear Dipole Moment: [e a0]
     X:    23.8295      Y:    -2.6125      Z:    -4.4176

  Electronic Dipole Moment: [e a0]
     X:   -20.8144      Y:     1.9859      Z:     3.9764

  Dipole Moment: [e a0]
     X:     3.0151      Y:    -0.6266      Z:    -0.4412     Total:     3.1110

  Dipole Moment: [D]
     X:     7.6636      Y:    -1.5927      Z:    -1.1213     Total:     7.9073


*** tstop() called on cpu-spot-dy-c5n2xlarge-1 at Tue Jun 22 07:21:31 2021
Module time:
	user time   =     646.95 seconds =      10.78 minutes
	system time =      10.33 seconds =       0.17 minutes
	total time  =         89 seconds =       1.48 minutes
Total time:
	user time   =     646.95 seconds =      10.78 minutes
	system time =      10.33 seconds =       0.17 minutes
	total time  =         89 seconds =       1.48 minutes


Properties will be evaluated at   0.000000,   0.000000,   0.000000 [a0]
OEProp: No title given, name of density matrix used for the following properties is 'SCF density'


  Wiberg Bond Indices using Orthogonal Lowdin Orbitals:

  Irrep: 1 Size: 23 x 23

                 1                   2                   3                   4                   5

    1     0.00000000000000     1.31885165278718     0.10103398170258     0.01256863963241     0.01383352263659
    2     1.31885165278718     0.00000000000000     0.88411297428105     0.11032750178224     0.11119612973140
    3     0.10103398170258     0.88411297428105     0.00000000000000     1.36521019326295     1.35507157340950
    4     0.01256863963241     0.11032750178224     1.36521019326295     0.00000000000000     0.13794144606308
    5     0.01383352263659     0.11119612973140     1.35507157340950     0.13794144606308     0.00000000000000
    6     0.03440425032508     0.07406154242768     0.89671586647879     0.10812175541369     0.10935814690652
    7     0.11878994842220     0.03619392195666     0.09940947436298     0.01286227221263     0.01380985924257
    8     0.01515691707103     0.00373895462786     0.01333657970048     0.00193892932347     0.00195652980720
    9     0.01476696997536     0.00561367440823     0.00249096256233     0.00037381318061     0.00036782892703
   10     0.01721823614571     0.00303601912745     0.00149268819406     0.00039610452517     0.00048745252136
   11     0.13190138077661     0.02588066807989     0.00428827373685     0.00052826021117     0.00059660472715
   12     1.18974820005135     0.09694178116812     0.03124693300576     0.00419250301415     0.00491601191741
   13     0.00269034398649     0.00095129478925     0.00067527156123     0.00021779661126     0.00027872394182
   14     0.00067022318634     0.00011798834685     0.00008092201638     0.00002047231800     0.00002508457371
   15     0.24786743140596     2.29194735670660     0.15042700661508     0.04033362625120     0.03803348720133
   16     0.00517143052264     0.01589690717210     0.16010068009496     0.04377037955302     0.04133314593376
   17     0.00072035044139     0.00023160337593     0.00051340859337     0.00007302792425     0.00006615604000
   18     0.00128532903938     0.00048316924324     0.00208660735541     0.00032649856327     0.00029339652470
   19     0.91378280181661     0.07326283972836     0.01372689580369     0.00175501458368     0.00165019400964
   20     0.02342650128415     0.00231309739916     0.00072811596517     0.00011102672173     0.00010856869627
   21     0.00009359946668     0.00002002014297     0.00002044705254     0.00000553535774     0.00000731779298
   22     0.00024357246727     0.00003922402710     0.00003493739214     0.00001001627538     0.00000918667977
   23     0.00006059956770     0.00001565365011     0.00000942703808     0.00000225796691     0.00000161998119

                 6                   7                   8                   9                  10

    1     0.03440425032508     0.11878994842220     0.01515691707103     0.01476696997536     0.01721823614571
    2     0.07406154242768     0.03619392195666     0.00373895462786     0.00561367440823     0.00303601912745
    3     0.89671586647879     0.09940947436298     0.01333657970048     0.00249096256233     0.00149268819406
    4     0.10812175541369     0.01286227221263     0.00193892932347     0.00037381318061     0.00039610452517
    5     0.10935814690652     0.01380985924257     0.00195652980720     0.00036782892703     0.00048745252136
    6     0.00000000000000     1.06682407868355     0.11882563452361     0.02007209683685     0.01521320345235
    7     1.06682407868355     0.00000000000000     1.32158646365783     0.13133059523131     0.10835381120779
    8     0.11882563452361     1.32158646365783     0.00000000000000     1.52979989419845     0.13596754451099
    9     0.02007209683685     0.13133059523131     1.52979989419845     0.00000000000000     1.36972101208863
   10     0.01521320345235     0.10835381120779     0.13596754451099     1.36972101208863     0.00000000000000
   11     0.01575276447815     0.11937667071276     0.11932688618625     0.12655599853602     1.43170786817648
   12     0.11666890531252     1.29579302795849     0.12405035355985     0.11099945603023     0.12984167869760
   13     0.00589155722781     0.02025301499325     0.02716618584353     0.16869012061755     1.29962103415581
   14     0.00046701266491     0.00234184721198     0.00320730886871     0.01933126202928     0.08374284980853
   15     0.01528882945537     0.00958831036031     0.00108744481759     0.00484176866757     0.00195695821494
   16     2.31502220713532     0.16565223864070     0.07315099918764     0.00588792295429     0.01647685579604
   17     0.00151591906614     0.01284024797788     0.08374118942692     0.86457191052287     0.07636368496118
   18     0.02014854957722     0.07630354463329     0.85268082626464     0.08149684302280     0.01247909911607
   19     0.00258887880948     0.01264797644360     0.00169588622883     0.00131473335853     0.00193720327392
   20     0.00166741662255     0.01110426136357     0.00547516595622     0.01207015682956     0.07404616666126
   21     0.00014992022410     0.00061253422123     0.00067712152826     0.00213280540952     0.01468202223804
   22     0.00020168045385     0.00080546584865     0.00038957917159     0.00212581424284     0.01369904877774
   23     0.00003454792341     0.00020592611615     0.00047002653422     0.00194438288132     0.01279765723296

                11                  12                  13                  14                  15

    1     0.13190138077661     1.18974820005135     0.00269034398649     0.00067022318634     0.24786743140596
    2     0.02588066807989     0.09694178116812     0.00095129478925     0.00011798834685     2.29194735670660
    3     0.00428827373685     0.03124693300576     0.00067527156123     0.00008092201638     0.15042700661508
    4     0.00052826021117     0.00419250301415     0.00021779661126     0.00002047231800     0.04033362625120
    5     0.00059660472715     0.00491601191741     0.00027872394182     0.00002508457371     0.03803348720133
    6     0.01575276447815     0.11666890531252     0.00589155722781     0.00046701266491     0.01528882945537
    7     0.11937667071276     1.29579302795849     0.02025301499325     0.00234184721198     0.00958831036031
    8     0.11932688618625     0.12405035355985     0.02716618584353     0.00320730886871     0.00108744481759
    9     0.12655599853602     0.11099945603023     0.16869012061755     0.01933126202928     0.00484176866757
   10     1.43170786817648     0.12984167869760     1.29962103415581     0.08374284980853     0.00195695821494
   11     0.00000000000000     1.36263219775640     0.15440227256465     0.04663445078226     0.01168971044784
   12     1.36263219775640     0.00000000000000     0.02327907518651     0.00417586787500     0.03058610906982
   13     0.15440227256465     0.02327907518651     0.00000000000000     1.24543436527226     0.00060581920244
   14     0.04663445078226     0.00417586787500     1.24543436527226     0.00000000000000     0.00004989659399
   15     0.01168971044784     0.03058610906982     0.00060581920244     0.00004989659399     0.00000000000000
   16     0.00480067289828     0.04433088772426     0.00603673933461     0.00048563300150     0.00560869830696
   17     0.01270640909561     0.00539422296325     0.03203566343399     0.00237619828515     0.00017552391505
   18     0.00527456424038     0.01181829250662     0.00191792147586     0.00043981684390     0.00019306873780
   19     0.02032888053133     0.06561314246791     0.00035143091786     0.00019775649616     0.02876165157649
   20     0.84618035083263     0.07717717454756     0.02134570821536     0.02047643396853     0.00064543816349
   21     0.00929481223907     0.00061433495284     0.06452257049617     0.94184726832022     0.00001374502564
   22     0.01625309895999     0.00134644512933     0.06507803424410     0.93853311925846     0.00001575530192
   23     0.00301909510532     0.00033913015026     0.07374993667598     0.94189793432036     0.00001078460972

                16                  17                  18                  19                  20

    1     0.00517143052264     0.00072035044139     0.00128532903938     0.91378280181661     0.02342650128415
    2     0.01589690717210     0.00023160337593     0.00048316924324     0.07326283972836     0.00231309739916
    3     0.16010068009496     0.00051340859337     0.00208660735541     0.01372689580369     0.00072811596517
    4     0.04377037955302     0.00007302792425     0.00032649856327     0.00175501458368     0.00011102672173
    5     0.04133314593376     0.00006615604000     0.00029339652470     0.00165019400964     0.00010856869627
    6     2.31502220713532     0.00151591906614     0.02014854957722     0.00258887880948     0.00166741662255
    7     0.16565223864070     0.01284024797788     0.07630354463329     0.01264797644360     0.01110426136357
    8     0.07315099918764     0.08374118942692     0.85268082626464     0.00169588622883     0.00547516595622
    9     0.00588792295429     0.86457191052287     0.08149684302280     0.00131473335853     0.01207015682956
   10     0.01647685579604     0.07636368496118     0.01247909911607     0.00193720327392     0.07404616666126
   11     0.00480067289828     0.01270640909561     0.00527456424038     0.02032888053133     0.84618035083263
   12     0.04433088772426     0.00539422296325     0.01181829250662     0.06561314246791     0.07717717454756
   13     0.00603673933461     0.03203566343399     0.00191792147586     0.00035143091786     0.02134570821536
   14     0.00048563300150     0.00237619828515     0.00043981684390     0.00019775649616     0.02047643396853
   15     0.00560869830696     0.00017552391505     0.00019306873780     0.02876165157649     0.00064543816349
   16     0.00000000000000     0.00037811271174     0.02114864698772     0.00053716221523     0.00058159327181
   17     0.00037811271174     0.00000000000000     0.01011263278405     0.00010838850247     0.00118108606724
   18     0.02114864698772     0.01011263278405     0.00000000000000     0.00060247519993     0.00045145858748
   19     0.00053716221523     0.00010838850247     0.00060247519993     0.00000000000000     0.00658161608963
   20     0.00058159327181     0.00118108606724     0.00045145858748     0.00658161608963     0.00000000000000
   21     0.00017240360790     0.00025182087873     0.00005597003282     0.00001828567237     0.00283041484830
   22     0.00019368836213     0.00049684511638     0.00006824769953     0.00009589153377     0.01009678952302
   23     0.00003866118805     0.00026502926436     0.00007319044145     0.00001764766716     0.00119339653520

                21                  22                  23

    1     0.00009359946668     0.00024357246727     0.00006059956770
    2     0.00002002014297     0.00003922402710     0.00001565365011
    3     0.00002044705254     0.00003493739214     0.00000942703808
    4     0.00000553535774     0.00001001627538     0.00000225796691
    5     0.00000731779298     0.00000918667977     0.00000161998119
    6     0.00014992022410     0.00020168045385     0.00003454792341
    7     0.00061253422123     0.00080546584865     0.00020592611615
    8     0.00067712152826     0.00038957917159     0.00047002653422
    9     0.00213280540952     0.00212581424284     0.00194438288132
   10     0.01468202223804     0.01369904877774     0.01279765723296
   11     0.00929481223907     0.01625309895999     0.00301909510532
   12     0.00061433495284     0.00134644512933     0.00033913015026
   13     0.06452257049617     0.06507803424410     0.07374993667598
   14     0.94184726832022     0.93853311925846     0.94189793432036
   15     0.00001374502564     0.00001575530192     0.00001078460972
   16     0.00017240360790     0.00019368836213     0.00003866118805
   17     0.00025182087873     0.00049684511638     0.00026502926436
   18     0.00005597003282     0.00006824769953     0.00007319044145
   19     0.00001828567237     0.00009589153377     0.00001764766716
   20     0.00283041484830     0.01009678952302     0.00119339653520
   21     0.00000000000000     0.03789565852898     0.04199656445094
   22     0.03789565852898     0.00000000000000     0.04234914129347
   23     0.04199656445094     0.04234914129347     0.00000000000000



  Atomic Valences: 

 #  #
 Irrep: 1
      1:  4.1642859
      2:  5.0552340
      3:  5.0828132
      4:  1.8410871
      5:  1.8313420
      6:  4.9389948
      7:  4.6366855
      8:  4.4354264
      9:  4.4765000
     10:  4.8212382
     11:  4.4691319
     12:  4.7317057
     13:  3.2151949
     14:  4.2525537
     15:  2.8797284
     16:  2.9267757
     17:  1.1061194
     18:  1.0997401
     19:  1.1475768
     20:  1.1197919
     21:  1.1179152
     22:  1.1299812
     23:  1.1204926


    Psi4 stopped on: Tuesday, 22 June 2021 07:21AM
    Psi4 wall time for execution: 0:01:29.31

*** Psi4 exiting successfully. Buy a developer a beer!
