
    -----------------------------------------------------------------------
          Psi4: An Open-Source Ab Initio Electronic Structure Package
                               Psi4 1.3.2 release

                         Git: Rev {HEAD} ecbda83 


    R. M. Parrish, L. A. Burns, D. G. A. Smith, A. C. Simmonett,
    A. E. DePrince III, E. G. Hohenstein, U. Bozkaya, A. Yu. Sokolov,
    R. Di Remigio, R. M. Richard, J. F. Gonthier, A. M. James,
    H. R. McAlexander, A. Kumar, M. Saitow, X. Wang, B. P. Pritchard,
    P. Verma, H. F. Schaefer III, K. Patkowski, R. A. King, E. F. Valeev,
    F. A. Evangelista, J. M. Turney, T. D. Crawford, and C. D. Sherrill,
    J. Chem. Theory Comput. 13(7) pp 3185--3197 (2017).
    (doi: 10.1021/acs.jctc.7b00174)


                         Additional Contributions by
    P. Kraus, H. Kruse, M. H. Lechner, M. C. Schieber, R. A. Shaw,
    A. Alenaizan, R. Galvelis, Z. L. Glick, S. Lehtola, and J. P. Misiewicz

    -----------------------------------------------------------------------


    Psi4 started on: Tuesday, 22 June 2021 06:42AM

    Process ID: 31493
    Host:       cpu-spot-dy-c5n2xlarge-1
    PSIDATADIR: /fsx/users/francis/anaconda3/envs/poltype-dev/share/psi4
    Memory:     500.0 MiB
    Threads:    1
    
  ==> Input File <==

--------------------------------------------------------------------------
molecule { 
0 1
 N   -1.091141   -1.487163    0.013835
 C   -2.382773   -1.165431    0.338967
 C   -2.672797    0.353959    0.574656
 F   -3.635275    0.736026   -0.332738
 F   -3.198450    0.484186    1.840869
 C   -1.464960    1.346330    0.446382
 C   -0.144807    0.778845    0.087578
 C    0.979303    1.623632   -0.040482
 C    2.236812    1.108650   -0.382329
 C    2.406744   -0.285775   -0.605717
 C    1.280664   -1.128840   -0.468456
 C    0.016659   -0.617334   -0.125927
 S    3.925809   -1.119164   -1.013910
 C    5.269818    0.102005   -0.961744
 O   -3.234070   -2.038504    0.426637
 O   -1.622886    2.548491    0.637048
 H    3.061979    1.810608   -0.489274
 H    0.843016    2.691808    0.132608
 H   -0.970137   -2.480351   -0.130435
 H    1.393345   -2.202429   -0.628964
 H    6.168050   -0.388477   -0.573785
 H    5.452945    0.483963   -1.970388
 H    5.020184    0.922902   -0.285394
}
set optking { 
  frozen_dihedral = ("
    11 10 13 14
    9 10 13 14
    21 14 13 10
  ")
}
set {
  geom_maxiter 400
  g_convergence GAU_LOOSE
  dynamic_level 1
}
memory 16GB
set_num_threads(8)
psi4_io.set_default_path("/scratch/Psi4-ligand")
for _ in range(1):
  try:
    set opt_coordinates both
    optimize('wb97x-d/6-31+G*')
    break
  except OptimizationConvergenceError:
    break
  else:
    try:
      set opt_coordinates cartesian
      optimize('wb97x-d/6-31+G*')
      break
    except OptimizationConvergenceError:
      pass
clean()
--------------------------------------------------------------------------

  Memory set to  14.901 GiB by Python driver.
  Threads set to 8 by Python driver.
gradient() will perform analytic gradient computation.

*** tstart() called on cpu-spot-dy-c5n2xlarge-1
*** at Tue Jun 22 06:42:45 2021

   => Loading Basis Set <=

    Name: 6-31+G*
    Role: ORBITAL
    Keyword: BASIS
    atoms 1             entry N          line   138 file /fsx/users/francis/anaconda3/envs/poltype-dev/share/psi4/basis/6-31pgs.gbs 
    atoms 2-3, 6-12, 14 entry C          line   119 file /fsx/users/francis/anaconda3/envs/poltype-dev/share/psi4/basis/6-31pgs.gbs 
    atoms 4-5           entry F          line   176 file /fsx/users/francis/anaconda3/envs/poltype-dev/share/psi4/basis/6-31pgs.gbs 
    atoms 13            entry S          line   344 file /fsx/users/francis/anaconda3/envs/poltype-dev/share/psi4/basis/6-31pgs.gbs 
    atoms 15-16         entry O          line   157 file /fsx/users/francis/anaconda3/envs/poltype-dev/share/psi4/basis/6-31pgs.gbs 
    atoms 17-23         entry H          line    46 file /fsx/users/francis/anaconda3/envs/poltype-dev/share/psi4/basis/6-31pgs.gbs 


         ---------------------------------------------------------
                                   SCF
               by Justin Turney, Rob Parrish, Andy Simmonett
                          and Daniel G. A. Smith
                              RKS Reference
                        8 Threads,  15258 MiB Core
         ---------------------------------------------------------

  ==> Geometry <==

    Molecular point group: c1
    Full point group: C1

    Geometry (in Angstrom), charge = 0, multiplicity = 1:

       Center              X                  Y                   Z               Mass       
    ------------   -----------------  -----------------  -----------------  -----------------
         N           -1.050608294472    -1.491152468921     0.031030574677    14.003074004430
         C           -2.342240294472    -1.169420468921     0.356162574677    12.000000000000
         C           -2.632264294472     0.349969531079     0.591851574677    12.000000000000
         F           -3.594742294472     0.732036531079    -0.315542425323    18.998403162730
         F           -3.157917294472     0.480196531079     1.858064574677    18.998403162730
         C           -1.424427294472     1.342340531079     0.463577574677    12.000000000000
         C           -0.104274294472     0.774855531079     0.104773574677    12.000000000000
         C            1.019835705528     1.619642531079    -0.023286425323    12.000000000000
         C            2.277344705528     1.104660531079    -0.365133425323    12.000000000000
         C            2.447276705528    -0.289764468921    -0.588521425323    12.000000000000
         C            1.321196705528    -1.132829468921    -0.451260425323    12.000000000000
         C            0.057191705528    -0.621323468921    -0.108731425323    12.000000000000
         S            3.966341705528    -1.123153468921    -0.996714425323    31.972071174400
         C            5.310350705528     0.098015531079    -0.944548425323    12.000000000000
         O           -3.193537294472    -2.042493468921     0.443832574677    15.994914619570
         O           -1.582353294472     2.544501531079     0.654243574677    15.994914619570
         H            3.102511705528     1.806618531079    -0.472078425323     1.007825032230
         H            0.883548705528     2.687818531079     0.149803574677     1.007825032230
         H           -0.929604294472    -2.484340468921    -0.113239425323     1.007825032230
         H            1.433877705528    -2.206418468921    -0.611768425323     1.007825032230
         H            6.208582705528    -0.392466468921    -0.556589425323     1.007825032230
         H            5.493477705528     0.479973531079    -1.953192425323     1.007825032230
         H            5.060716705528     0.918912531079    -0.268198425323     1.007825032230

  Running in c1 symmetry.

  Rotational constants: A =      0.03855  B =      0.00806  C =      0.00694 [cm^-1]
  Rotational constants: A =   1155.67406  B =    241.64371  C =    207.97636 [MHz]
  Nuclear repulsion = 1173.354456164435078

  Charge       = 0
  Multiplicity = 1
  Electrons    = 124
  Nalpha       = 62
  Nbeta        = 62

  ==> Algorithm <==

  SCF Algorithm Type is DF.
  DIIS enabled.
  MOM disabled.
  Fractional occupation disabled.
  Guess Type is SAD.
  Energy threshold   = 1.00e-08
  Density threshold  = 1.00e-08
  Integral threshold = 0.00e+00

  ==> Primary Basis <==

  Basis Set: 6-31+G*
    Blend: 6-31+G*
    Number of shells: 144
    Number of basis function: 322
    Number of Cartesian functions: 322
    Spherical Harmonics?: false
    Max angular momentum: 2

  ==> DFT Potential <==

   => Composite Functional: WB97X-D <= 

    wB97X-D Hyb-GGA Exchange-Correlation Functional

    J.-D. Chai and M. Head-Gordon, Phys. Chem. Chem. Phys. 10, 6615 (2008)

    Deriv               =              1
    GGA                 =           TRUE
    Meta                =          FALSE

    Exchange Hybrid     =           TRUE
    MP2 Hybrid          =          FALSE

   => Exchange-Correlation Functionals <=

    1.0000   wB97D range-separated functional

   => Exact (HF) Exchange <=

    0.7780            HF,LR [omega = 0.2000]
    0.2220               HF 

   => Molecular Quadrature <=

    Radial Scheme          =       TREUTLER
    Pruning Scheme         =           FLAT
    Nuclear Scheme         =       TREUTLER

    BS radius alpha        =              1
    Pruning alpha          =              1
    Radial Points          =             75
    Spherical Points       =            302
    Total Points           =         520854
    Total Blocks           =           3882
    Max Points             =            256
    Max Functions          =            288

   => WB97X-D: Empirical Dispersion <=

    Chai and Head-Gordon Dispersion Correction
    Chai, J.-D.; Head-Gordon, M. (2010), J. Chem. Phys., 132: 6615-6620

        s6 =       1.000000

   => Loading Basis Set <=

    Name: (6-31+G* AUX)
    Role: JKFIT
    Keyword: DF_BASIS_SCF
    atoms 1             entry N          line   252 file /fsx/users/francis/anaconda3/envs/poltype-dev/share/psi4/basis/heavy-aug-cc-pvdz-jkfit.gbs 
    atoms 2-3, 6-12, 14 entry C          line   194 file /fsx/users/francis/anaconda3/envs/poltype-dev/share/psi4/basis/heavy-aug-cc-pvdz-jkfit.gbs 
    atoms 4-5           entry F          line   368 file /fsx/users/francis/anaconda3/envs/poltype-dev/share/psi4/basis/heavy-aug-cc-pvdz-jkfit.gbs 
    atoms 13            entry S          line   730 file /fsx/users/francis/anaconda3/envs/poltype-dev/share/psi4/basis/heavy-aug-cc-pvdz-jkfit.gbs 
    atoms 15-16         entry O          line   310 file /fsx/users/francis/anaconda3/envs/poltype-dev/share/psi4/basis/heavy-aug-cc-pvdz-jkfit.gbs 
    atoms 17-23         entry H          line   116 file /fsx/users/francis/anaconda3/envs/poltype-dev/share/psi4/basis/heavy-aug-cc-pvdz-jkfit.gbs 

  ==> Pre-Iterations <==

   -------------------------------------------------------
    Irrep   Nso     Nmo     Nalpha   Nbeta   Ndocc  Nsocc
   -------------------------------------------------------
     A        322     322       0       0       0       0
   -------------------------------------------------------
    Total     322     322      62      62      62       0
   -------------------------------------------------------

  ==> Integral Setup <==

  ==> DiskDFJK: Density-Fitted J/K Matrices <==

    J tasked:                  Yes
    K tasked:                  Yes
    wK tasked:                 Yes
    Omega:               2.000E-01
    OpenMP threads:              8
    Integrals threads:           8
    Memory [MiB]:             8465
    Algorithm:                Core
    Integral Cache:           NONE
    Schwarz Cutoff:          1E-12
    Fitting Condition:       1E-10

   => Auxiliary Basis Set <=

  Basis Set: (6-31+G* AUX)
    Blend: HEAVY-AUG-CC-PVDZ-JKFIT
    Number of shells: 523
    Number of basis function: 1840
    Number of Cartesian functions: 1840
    Spherical Harmonics?: false
    Max angular momentum: 3

  Cached 100.0% of DFT collocation blocks in 2.909 [GiB].

  Minimum eigenvalue in the overlap matrix is 4.8761999680E-07.
  Using Symmetric Orthogonalization.

  SCF Guess: Superposition of Atomic Densities via on-the-fly atomic UHF.

  ==> Iterations <==

                           Total Energy        Delta E     RMS |[F,P]|

   @DF-RKS iter SAD: -1187.19965547060929   -1.18720e+03   0.00000e+00 
   @DF-RKS iter   1: -1187.53525999855333   -3.35605e-01   3.40197e-03 DIIS
   @DF-RKS iter   2: -1187.54538076002473   -1.01208e-02   3.70749e-03 DIIS
   @DF-RKS iter   3: -1188.08538021344043   -5.39999e-01   7.82716e-04 DIIS
   @DF-RKS iter   4: -1188.10950548449682   -2.41253e-02   2.67907e-04 DIIS
   @DF-RKS iter   5: -1188.11303743957114   -3.53196e-03   7.23714e-05 DIIS
   @DF-RKS iter   6: -1188.11343774682791   -4.00307e-04   2.37491e-05 DIIS
   @DF-RKS iter   7: -1188.11349837533908   -6.06285e-05   1.02739e-05 DIIS
   @DF-RKS iter   8: -1188.11351478046504   -1.64051e-05   3.91236e-06 DIIS
   @DF-RKS iter   9: -1188.11351760521347   -2.82475e-06   2.14408e-06 DIIS
   @DF-RKS iter  10: -1188.11351795457836   -3.49365e-07   7.20378e-07 DIIS
   @DF-RKS iter  11: -1188.11351800441821   -4.98399e-08   3.26628e-07 DIIS
   @DF-RKS iter  12: -1188.11351801477235   -1.03541e-08   1.49467e-07 DIIS
   @DF-RKS iter  13: -1188.11351801730211   -2.52976e-09   5.77294e-08 DIIS
   @DF-RKS iter  14: -1188.11351801760202   -2.99906e-10   2.45298e-08 DIIS
   @DF-RKS iter  15: -1188.11351801766023   -5.82077e-11   1.18147e-08 DIIS
   @DF-RKS iter  16: -1188.11351801766796   -7.73070e-12   6.30127e-09 DIIS
  Energy and wave function converged.


  ==> Post-Iterations <==

    Orbital Energies [Eh]
    ---------------------

    Doubly Occupied:                                                      

       1A    -89.085935     2A    -24.873234     3A    -24.872589  
       4A    -19.304631     5A    -19.293298     6A    -14.542231  
       7A    -10.510112     8A    -10.458084     9A    -10.435027  
      10A    -10.411025    11A    -10.394607    12A    -10.358724  
      13A    -10.355316    14A    -10.352570    15A    -10.352562  
      16A    -10.347399    17A     -8.103271    18A     -6.054049  
      19A     -6.049414    20A     -6.043441    21A     -1.381257  
      22A     -1.324906    23A     -1.188564    24A     -1.174383  
      25A     -1.091523    26A     -0.998999    27A     -0.939870  
      28A     -0.903663    29A     -0.885824    30A     -0.869248  
      31A     -0.798112    32A     -0.763336    33A     -0.750234  
      34A     -0.744219    35A     -0.693084    36A     -0.678383  
      37A     -0.665491    38A     -0.644047    39A     -0.628015  
      40A     -0.589335    41A     -0.583618    42A     -0.564329  
      43A     -0.561782    44A     -0.555749    45A     -0.553452  
      46A     -0.551943    47A     -0.548817    48A     -0.534872  
      49A     -0.521088    50A     -0.515973    51A     -0.506423  
      52A     -0.498801    53A     -0.490664    54A     -0.485743  
      55A     -0.474553    56A     -0.439024    57A     -0.429365  
      58A     -0.395624    59A     -0.394911    60A     -0.367285  
      61A     -0.339610    62A     -0.318016  

    Virtual:                                                              

      63A     -0.046229    64A      0.011498    65A      0.039270  
      66A      0.047490    67A      0.051942    68A      0.065113  
      69A      0.066651    70A      0.074728    71A      0.080565  
      72A      0.084588    73A      0.092484    74A      0.095433  
      75A      0.105040    76A      0.111289    77A      0.114700  
      78A      0.117524    79A      0.117803    80A      0.130764  
      81A      0.137326    82A      0.138705    83A      0.143438  
      84A      0.149468    85A      0.153826    86A      0.163464  
      87A      0.172125    88A      0.175138    89A      0.175681  
      90A      0.180255    91A      0.184060    92A      0.189685  
      93A      0.192576    94A      0.197473    95A      0.203150  
      96A      0.204440    97A      0.213832    98A      0.217323  
      99A      0.219263   100A      0.226658   101A      0.233462  
     102A      0.235529   103A      0.241126   104A      0.244020  
     105A      0.247029   106A      0.250849   107A      0.257678  
     108A      0.261590   109A      0.266813   110A      0.270996  
     111A      0.276265   112A      0.284582   113A      0.287679  
     114A      0.290544   115A      0.300301   116A      0.300994  
     117A      0.312035   118A      0.314666   119A      0.321833  
     120A      0.327508   121A      0.329763   122A      0.330122  
     123A      0.336238   124A      0.342228   125A      0.355004  
     126A      0.360025   127A      0.362892   128A      0.372977  
     129A      0.378194   130A      0.383258   131A      0.392224  
     132A      0.395807   133A      0.397923   134A      0.401842  
     135A      0.411284   136A      0.416790   137A      0.424936  
     138A      0.435033   139A      0.444648   140A      0.448132  
     141A      0.458106   142A      0.468813   143A      0.477032  
     144A      0.481761   145A      0.503293   146A      0.511903  
     147A      0.525700   148A      0.528772   149A      0.536921  
     150A      0.554770   151A      0.575387   152A      0.580677  
     153A      0.585408   154A      0.595827   155A      0.605624  
     156A      0.626985   157A      0.655942   158A      0.662448  
     159A      0.672949   160A      0.695135   161A      0.728259  
     162A      0.742819   163A      0.752997   164A      0.762621  
     165A      0.769088   166A      0.771726   167A      0.788461  
     168A      0.797605   169A      0.803908   170A      0.818526  
     171A      0.822160   172A      0.843396   173A      0.861457  
     174A      0.877014   175A      0.881990   176A      0.883136  
     177A      0.899104   178A      0.916124   179A      0.926731  
     180A      0.930782   181A      0.963519   182A      0.966796  
     183A      0.980819   184A      0.983791   185A      1.017081  
     186A      1.020160   187A      1.044111   188A      1.057257  
     189A      1.066089   190A      1.079651   191A      1.083657  
     192A      1.094320   193A      1.116566   194A      1.152402  
     195A      1.153351   196A      1.171609   197A      1.201634  
     198A      1.204547   199A      1.213587   200A      1.218073  
     201A      1.226401   202A      1.231876   203A      1.268612  
     204A      1.281914   205A      1.284584   206A      1.321221  
     207A      1.323159   208A      1.335322   209A      1.344686  
     210A      1.386032   211A      1.402966   212A      1.407458  
     213A      1.414541   214A      1.418858   215A      1.440890  
     216A      1.446176   217A      1.451849   218A      1.465117  
     219A      1.466961   220A      1.484537   221A      1.503029  
     222A      1.512395   223A      1.524455   224A      1.533996  
     225A      1.547133   226A      1.592484   227A      1.620304  
     228A      1.649834   229A      1.663919   230A      1.670759  
     231A      1.709335   232A      1.749870   233A      1.753871  
     234A      1.758709   235A      1.759964   236A      1.761189  
     237A      1.769944   238A      1.780717   239A      1.788174  
     240A      1.821267   241A      1.838717   242A      1.864568  
     243A      1.874096   244A      1.896609   245A      1.899320  
     246A      1.910124   247A      1.919491   248A      1.946339  
     249A      1.963269   250A      1.966742   251A      1.971537  
     252A      2.004313   253A      2.038854   254A      2.049305  
     255A      2.056972   256A      2.058615   257A      2.081266  
     258A      2.090892   259A      2.099466   260A      2.112388  
     261A      2.146042   262A      2.152410   263A      2.167107  
     264A      2.200299   265A      2.205667   266A      2.210650  
     267A      2.248436   268A      2.256862   269A      2.264277  
     270A      2.268520   271A      2.302697   272A      2.307884  
     273A      2.315832   274A      2.345726   275A      2.348560  
     276A      2.367664   277A      2.380834   278A      2.403161  
     279A      2.462504   280A      2.465412   281A      2.510662  
     282A      2.514394   283A      2.569091   284A      2.625808  
     285A      2.657022   286A      2.676155   287A      2.704480  
     288A      2.730075   289A      2.736452   290A      2.769531  
     291A      2.775546   292A      2.827269   293A      2.828354  
     294A      2.849900   295A      2.898588   296A      2.948040  
     297A      2.960071   298A      3.030654   299A      3.123808  
     300A      3.155077   301A      3.211268   302A      3.233701  
     303A      3.338373   304A      3.379253   305A      3.462847  
     306A      3.486888   307A      4.035056   308A      4.278939  
     309A      4.309786   310A      4.331846   311A      4.361006  
     312A      4.377409   313A      4.416031   314A      4.469688  
     315A      4.486355   316A      4.521463   317A      4.580547  
     318A      4.780160   319A      4.835622   320A      5.115960  
     321A      5.696978   322A      7.144872  

    Final Occupation by Irrep:
              A 
    DOCC [    62 ]

  @DF-RKS Final Energy: -1188.11351801766796

   => Energetics <=

    Nuclear Repulsion Energy =           1173.3544561644350779
    One-Electron Energy =               -3960.7921838275424307
    Two-Electron Energy =                1688.7757033587290607
    DFT Exchange-Correlation Energy =     -89.4380876489927488
    Empirical Dispersion Energy =          -0.0134060642965889
    VV10 Nonlocal Energy =                  0.0000000000000000
    Total Energy =                      -1188.1135180176677295

Computation Completed


Properties will be evaluated at   0.000000,   0.000000,   0.000000 [a0]

Properties computed using the SCF density matrix

  Nuclear Dipole Moment: [e a0]
     X:    26.3791      Y:    -0.4070      Z:    -5.0623

  Electronic Dipole Moment: [e a0]
     X:   -23.1261      Y:     0.0787      Z:     4.4026

  Dipole Moment: [e a0]
     X:     3.2530      Y:    -0.3283      Z:    -0.6597     Total:     3.3354

  Dipole Moment: [D]
     X:     8.2682      Y:    -0.8345      Z:    -1.6768     Total:     8.4777


*** tstop() called on cpu-spot-dy-c5n2xlarge-1 at Tue Jun 22 06:44:00 2021
Module time:
	user time   =     560.67 seconds =       9.34 minutes
	system time =      10.35 seconds =       0.17 minutes
	total time  =         75 seconds =       1.25 minutes
Total time:
	user time   =     560.67 seconds =       9.34 minutes
	system time =      10.35 seconds =       0.17 minutes
	total time  =         75 seconds =       1.25 minutes

*** tstart() called on cpu-spot-dy-c5n2xlarge-1
*** at Tue Jun 22 06:44:00 2021


         ------------------------------------------------------------
                                   SCF GRAD                          
                          Rob Parrish, Justin Turney,                
                       Andy Simmonett, and Alex Sokolov              
         ------------------------------------------------------------

  ==> Geometry <==

    Molecular point group: c1
    Full point group: C1

    Geometry (in Angstrom), charge = 0, multiplicity = 1:

       Center              X                  Y                   Z               Mass       
    ------------   -----------------  -----------------  -----------------  -----------------
         N           -1.050608294472    -1.491152468921     0.031030574677    14.003074004430
         C           -2.342240294472    -1.169420468921     0.356162574677    12.000000000000
         C           -2.632264294472     0.349969531079     0.591851574677    12.000000000000
         F           -3.594742294472     0.732036531079    -0.315542425323    18.998403162730
         F           -3.157917294472     0.480196531079     1.858064574677    18.998403162730
         C           -1.424427294472     1.342340531079     0.463577574677    12.000000000000
         C           -0.104274294472     0.774855531079     0.104773574677    12.000000000000
         C            1.019835705528     1.619642531079    -0.023286425323    12.000000000000
         C            2.277344705528     1.104660531079    -0.365133425323    12.000000000000
         C            2.447276705528    -0.289764468921    -0.588521425323    12.000000000000
         C            1.321196705528    -1.132829468921    -0.451260425323    12.000000000000
         C            0.057191705528    -0.621323468921    -0.108731425323    12.000000000000
         S            3.966341705528    -1.123153468921    -0.996714425323    31.972071174400
         C            5.310350705528     0.098015531079    -0.944548425323    12.000000000000
         O           -3.193537294472    -2.042493468921     0.443832574677    15.994914619570
         O           -1.582353294472     2.544501531079     0.654243574677    15.994914619570
         H            3.102511705528     1.806618531079    -0.472078425323     1.007825032230
         H            0.883548705528     2.687818531079     0.149803574677     1.007825032230
         H           -0.929604294472    -2.484340468921    -0.113239425323     1.007825032230
         H            1.433877705528    -2.206418468921    -0.611768425323     1.007825032230
         H            6.208582705528    -0.392466468921    -0.556589425323     1.007825032230
         H            5.493477705528     0.479973531079    -1.953192425323     1.007825032230
         H            5.060716705528     0.918912531079    -0.268198425323     1.007825032230

  Nuclear repulsion = 1173.354456164435078

  ==> Basis Set <==

  Basis Set: 6-31+G*
    Blend: 6-31+G*
    Number of shells: 144
    Number of basis function: 322
    Number of Cartesian functions: 322
    Spherical Harmonics?: false
    Max angular momentum: 2

  ==> DFJKGrad: Density-Fitted SCF Gradients <==

    Gradient:                    1
    J tasked:                  Yes
    K tasked:                  Yes
    wK tasked:                 Yes
    Omega:               2.000E-01
    OpenMP threads:              8
    Integrals threads:           8
    Memory [MiB]:            11444
    Schwarz Cutoff:          0E+00
    Fitting Condition:       1E-10

   => Auxiliary Basis Set <=

  Basis Set: (6-31+G* AUX)
    Blend: HEAVY-AUG-CC-PVDZ-JKFIT
    Number of shells: 523
    Number of basis function: 1840
    Number of Cartesian functions: 1840
    Spherical Harmonics?: false
    Max angular momentum: 3

  ==> DFT Potential <==

   => Composite Functional: WB97X-D <= 

    wB97X-D Hyb-GGA Exchange-Correlation Functional

    J.-D. Chai and M. Head-Gordon, Phys. Chem. Chem. Phys. 10, 6615 (2008)

    Deriv               =              1
    GGA                 =           TRUE
    Meta                =          FALSE

    Exchange Hybrid     =           TRUE
    MP2 Hybrid          =          FALSE

   => Exchange-Correlation Functionals <=

    1.0000   wB97D range-separated functional

   => Exact (HF) Exchange <=

    0.7780            HF,LR [omega = 0.2000]
    0.2220               HF 

   => Molecular Quadrature <=

    Radial Scheme          =       TREUTLER
    Pruning Scheme         =           FLAT
    Nuclear Scheme         =       TREUTLER

    BS radius alpha        =              1
    Pruning alpha          =              1
    Radial Points          =             75
    Spherical Points       =            302
    Total Points           =         520854
    Total Blocks           =           3882
    Max Points             =            256
    Max Functions          =            288


  -Total Gradient:
     Atom            X                  Y                   Z
    ------   -----------------  -----------------  -----------------
       1       -0.009586773229    -0.010966602593     0.001091865775
       2        0.008095398182     0.011454523632    -0.000274480449
       3        0.012211663796    -0.003819502331    -0.003878145215
       4       -0.012371213519     0.005057775519    -0.012188817189
       5       -0.006757832661     0.001774152773     0.017604976087
       6       -0.009175710195    -0.021664815765    -0.000894802075
       7       -0.000215254651     0.007421212514     0.000180638145
       8       -0.003266850135     0.013601626414     0.002739409108
       9        0.006335241824     0.003433370556     0.000609092525
      10        0.008786245581    -0.009859960111    -0.005760605838
      11        0.003966566275    -0.002505073710    -0.000580476170
      12       -0.002294633561    -0.006044002883     0.000192723545
      13        0.005874561392     0.003070558323    -0.002734946197
      14        0.005876670728    -0.005531651425     0.001152338454
      15       -0.008895193276    -0.021606092312    -0.000605284444
      16        0.005519045534     0.028927553891     0.002573039761
      17        0.000880388480     0.003637375445     0.000091682626
      18       -0.000660534015     0.003842166627     0.001007654696
      19       -0.004045878063     0.001629631705     0.001123282091
      20        0.000203905741    -0.002493287059    -0.000743233535
      21        0.002862826504     0.001838707206     0.001899633222
      22       -0.001403583382    -0.001555256340    -0.002790241569
      23       -0.001159793796    -0.000075609875     0.000067683299


*** tstop() called on cpu-spot-dy-c5n2xlarge-1 at Tue Jun 22 06:44:24 2021
Module time:
	user time   =     146.04 seconds =       2.43 minutes
	system time =       3.69 seconds =       0.06 minutes
	total time  =         24 seconds =       0.40 minutes
Total time:
	user time   =     706.72 seconds =      11.78 minutes
	system time =      14.04 seconds =       0.23 minutes
	total time  =         99 seconds =       1.65 minutes

			-----------------------------------------
			 OPTKING 2.0: for geometry optimizations 
			  - R.A. King,  Bethel University        
			-----------------------------------------
	At level 1: Red. Int., RFO, no backsteps, dynamic trust

	Internal coordinates to be generated automatically.
	Detected frag 1 with atoms:  1 2 3 4 5 6 7 8 9 10 11 12 13 14 15 16 17 18 19 20
	 21 22 23
	---Fragment 1 Bond Connectivity---
	 1 : 2 12 19
	 2 : 1 3 15
	 3 : 2 4 5 6
	 4 : 3
	 5 : 3
	 6 : 3 7 16
	 7 : 6 8 12
	 8 : 7 9 18
	 9 : 8 10 17
	 10 : 9 11 13
	 11 : 10 12 20
	 12 : 1 7 11
	 13 : 10 14
	 14 : 13 21 22 23
	 15 : 2
	 16 : 6
	 17 : 9
	 18 : 8
	 19 : 1
	 20 : 11
	 21 : 14
	 22 : 14
	 23 : 14

	Assuming in current code that numbering for constraints corresponds to unified fragment.
	Frozen dihedral atom list: 
	    11    10    13    14
	     9    10    13    14
	    21    14    13    10
	---Fragment 1 Geometry and Gradient---
	 N          -1.9853619417       -2.8178697776        0.0586392877
	 C          -4.4261926766       -2.2098844118        0.6730497223
	 C          -4.9742586064        0.6613465660        1.1184373831
	 F          -6.7930784282        1.3833485576       -0.5962887648
	 F          -5.9675988134        0.9074399301        3.5112331696
	 C          -2.6917774722        2.5366559708        0.8760346540
	 C          -0.1970498585        1.4642647405        0.1979933613
	 C           1.9272101764        3.0606808049       -0.0440049663
	 C           4.3035577867        2.0875058653       -0.6900021731
	 C           4.6246827267       -0.5475754872       -1.1121443128
	 C           2.4966999313       -2.1407374431       -0.8527586151
	 C           0.1080766601       -1.1741311916       -0.2054726151
	 S           7.4952995434       -2.1224524531       -1.8835172892
	 C          10.0351084636        0.1852225098       -1.7849378361
	 O          -6.0349108580       -3.8597532693        0.8387220117
	 O          -2.9902143603        4.8084110195        1.2363411755
	 H           5.8628974245        3.4140142369       -0.8920989336
	 H           1.6696650719        5.0792408987        0.2830877288
	 H          -1.7566975216       -4.6947230887       -0.2139915005
	 H           2.7096361608       -4.1695266244       -1.1560747761
	 H          11.7325209407       -0.7416541397       -1.0518015782
	 H          10.3811683398        0.9070185212       -3.6909987542
	 H           9.5633685720        1.7364930170       -0.5068215711
	            -0.0095867732       -0.0109666026        0.0010918658
	             0.0080953982        0.0114545236       -0.0002744804
	             0.0122116638       -0.0038195023       -0.0038781452
	            -0.0123712135        0.0050577755       -0.0121888172
	            -0.0067578327        0.0017741528        0.0176049761
	            -0.0091757102       -0.0216648158       -0.0008948021
	            -0.0002152547        0.0074212125        0.0001806381
	            -0.0032668501        0.0136016264        0.0027394091
	             0.0063352418        0.0034333706        0.0006090925
	             0.0087862456       -0.0098599601       -0.0057606058
	             0.0039665663       -0.0025050737       -0.0005804762
	            -0.0022946336       -0.0060440029        0.0001927235
	             0.0058745614        0.0030705583       -0.0027349462
	             0.0058766707       -0.0055316514        0.0011523385
	            -0.0088951933       -0.0216060923       -0.0006052844
	             0.0055190455        0.0289275539        0.0025730398
	             0.0008803885        0.0036373754        0.0000916826
	            -0.0006605340        0.0038421666        0.0010076547
	            -0.0040458781        0.0016296317        0.0011232821
	             0.0002039057       -0.0024932871       -0.0007432335
	             0.0028628265        0.0018387072        0.0018996332
	            -0.0014035834       -0.0015552563       -0.0027902416
	            -0.0011597938       -0.0000756099        0.0000676833

	Previous optimization step data not found.  Starting new optimization.

	---Fragment 1 Intrafragment Coordinates---
	 - Coordinate -           - BOHR/RAD -       - ANG/DEG -
	 R(1,2)           =         2.589363	       1.370232
	 R(1,12)          =         2.674718	       1.415400
	 R(1,19)          =         1.910286	       1.010880
	 R(2,3)           =         2.956808	       1.564675
	 R(2,15)          =         2.310301	       1.222558
	 R(3,4)           =         2.601861	       1.376845
	 R(3,5)           =         2.602452	       1.377158
	 R(3,6)           =         2.963995	       1.568478
	 R(6,7)           =         2.798826	       1.481075
	 R(6,16)          =         2.319430	       1.227390
	 R(7,8)           =         2.668256	       1.411980
	 R(7,12)          =         2.686451	       1.421609
	 R(8,9)           =         2.647907	       1.401212
	 R(8,18)          =         2.061044	       1.090658
	 R(9,10)          =         2.687932	       1.422392
	 R(9,17)          =         2.057184	       1.088615
	 R(10,11)         =         2.670909	       1.413384
	 R(10,13)         =         3.363881	       1.780089
	 R(11,12)         =         2.656845	       1.405942
	 R(11,20)         =         2.062360	       1.091354
	 R(13,14)         =         3.433032	       1.816682
	 R(14,21)         =         2.068284	       1.094489
	 R(14,22)         =         2.067321	       1.093979
	 R(14,23)         =         2.064597	       1.092538
	 B(1,2,3)         =         2.024694	     116.006449
	 B(1,2,15)        =         2.101009	     120.378956
	 B(1,12,7)        =         2.094196	     119.988580
	 B(1,12,11)       =         2.099177	     120.273978
	 B(2,1,12)        =         2.235612	     128.091131
	 B(2,1,19)        =         1.957774	     112.172189
	 B(2,3,4)         =         1.875242	     107.443466
	 B(2,3,5)         =         1.876612	     107.521954
	 B(2,3,6)         =         2.048035	     117.343748
	 B(3,2,15)        =         2.157473	     123.614110
	 B(3,6,7)         =         2.053064	     117.631916
	 B(3,6,16)        =         2.103546	     120.524318
	 B(4,3,5)         =         1.889024	     108.233093
	 B(4,3,6)         =         1.884776	     107.989705
	 B(5,3,6)         =         1.885249	     108.016783
	 B(6,7,8)         =         2.097112	     120.155691
	 B(6,7,12)        =         2.110552	     120.925723
	 B(7,6,16)        =         2.126573	     121.843648
	 B(7,8,9)         =         2.113802	     121.111930
	 B(7,8,18)        =         2.062457	     118.170102
	 B(7,12,11)       =         2.089797	     119.736520
	 B(8,7,12)        =         2.075505	     118.917681
	 B(8,9,10)        =         2.101142	     120.386569
	 B(8,9,17)        =         2.056962	     117.855257
	 B(9,8,18)        =         2.106925	     120.717897
	 B(9,10,11)       =         2.064990	     118.315233
	 B(9,10,13)       =         2.210467	     126.650444
	 B(10,9,17)       =         2.124867	     121.745897
	 B(10,11,12)      =         2.121093	     121.529690
	 B(10,11,20)      =         2.083154	     119.355915
	 B(10,13,14)      =         1.886035	     108.061818
	 B(11,10,13)      =         2.007449	     115.018348
	 B(12,1,19)       =         2.089795	     119.736432
	 B(12,11,20)      =         2.078935	     119.114181
	 B(13,14,21)      =         1.892410	     108.427080
	 B(13,14,22)      =         1.909284	     109.393932
	 B(13,14,23)      =         1.932430	     110.720103
	 B(21,14,22)      =         1.923997	     110.236895
	 B(21,14,23)      =         1.880523	     107.746015
	 B(22,14,23)      =         1.924831	     110.284710
	 D(1,2,3,4)       =         2.104632	     120.586549
	 D(1,2,3,5)       =        -2.148673	    -123.109892
	 D(1,2,3,6)       =        -0.021157	      -1.212212
	 D(1,12,7,6)      =        -0.008508	      -0.487501
	 D(1,12,7,8)      =         3.127055	     179.167049
	 D(1,12,11,10)    =        -3.133697	    -179.547598
	 D(1,12,11,20)    =         0.004931	       0.282518
	 D(2,1,12,7)      =         0.006495	       0.372133
	 D(2,1,12,11)     =        -3.141211	    -179.978153
	 D(2,3,6,7)       =         0.019310	       1.106407
	 D(2,3,6,16)      =        -3.124426	    -179.016432
	 D(3,2,1,12)      =         0.008962	       0.513503
	 D(3,2,1,19)      =        -3.135843	    -179.670597
	 D(3,6,7,8)       =        -3.140205	    -179.920481
	 D(3,6,7,12)      =        -0.004716	      -0.270188
	 D(4,3,2,15)      =        -1.032545	     -59.160467
	 D(4,3,6,7)       =        -2.101539	    -120.409339
	 D(4,3,6,16)      =         1.037909	      59.467822
	 D(5,3,2,15)      =         0.997335	      57.143092
	 D(5,3,6,7)       =         2.142357	     122.748019
	 D(5,3,6,16)      =        -1.001380	     -57.374821
	 D(6,3,2,15)      =         3.124851	     179.040772
	 D(6,7,8,9)       =        -3.138775	    -179.838553
	 D(6,7,8,18)      =         0.001146	       0.065651
	 D(6,7,12,11)     =         3.139165	     179.860893
	 D(7,8,9,10)      =        -0.002376	      -0.136146
	 D(7,8,9,17)      =         3.117358	     178.611457
	 D(7,12,1,19)     =        -3.131671	    -179.431525
	 D(7,12,11,10)    =         0.001798	       0.103000
	 D(7,12,11,20)    =         3.140425	     179.933115
	 D(8,7,6,16)      =         0.003562	       0.204082
	 D(8,7,12,11)     =        -0.008457	      -0.484558
	 D(8,9,10,11)     =        -0.004344	      -0.248919
	 D(8,9,10,13)     =        -3.119189	    -178.716373
	 D(9,8,7,12)      =         0.008799	       0.504170
	 D(9,10,11,12)    =         0.004620	       0.264706
	 D(9,10,11,20)    =        -3.134001	    -179.565008
	*D(9,10,13,14)    =         0.082239	       4.711967
	 D(10,9,8,18)     =         3.140931	     179.962086
	*D(10,13,14,21)   =         2.515447	     144.124502
	 D(10,13,14,22)   =        -1.668926	     -95.622391
	 D(10,13,14,23)   =         0.455904	      26.121387
	 D(11,10,9,17)    =        -3.123211	    -178.946822
	*D(11,10,13,14)   =        -3.033368	    -173.799167
	 D(11,12,1,19)    =         0.003808	       0.218189
	 D(12,1,2,15)     =        -3.136893	    -179.730708
	 D(12,7,6,16)     =         3.139051	     179.854375
	 D(12,7,8,18)     =        -3.134465	    -179.591627
	 D(12,11,10,13)   =         3.122532	     178.907880
	 D(13,10,9,17)    =         0.045129	       2.585724
	 D(13,10,11,20)   =        -0.016089	      -0.921834
	 D(15,2,1,19)     =         0.001487	       0.085191
	 D(17,9,8,18)     =        -0.022520	      -1.290311

	Current energy   :     -1188.1135180177

	Generating empirical Hessian (Schlegel '84) for each fragment.
	Taking RFO optimization step.
	Going to follow RFO solution 1.
	Using RFO vector 1.
	Norm of target step-size    0.19826
	Projected energy change by RFO approximation:        -0.0124872492

	Back-transformation to cartesian coordinates...
	Could not converge backtransformation.
	Using first guess instead.

	Back-transformation to cartesian coordinates to adjust frozen coordinates...
	Successfully converged to displaced geometry.

	--- Internal Coordinate Step in ANG or DEG, aJ/ANG or AJ/DEG ---
	 ---------------------------------------------------------------------------
	   Coordinate                Previous        Force       Change         New 
	   ----------                --------       ------       ------       ------
	    1 R(1,2)          =      1.370232    -0.009032    -0.000849     1.369383
	    2 R(1,12)         =      1.415400    -0.132856    -0.019569     1.395831
	    3 R(1,19)         =      1.010880     0.018717     0.002612     1.013492
	    4 R(2,3)          =      1.564675    -0.095923    -0.021085     1.543590
	    5 R(2,15)         =      1.222558    -0.177864    -0.009962     1.212596
	    6 R(3,4)          =      1.376845    -0.149217    -0.018727     1.358118
	    7 R(3,5)          =      1.377158    -0.156149    -0.019676     1.357483
	    8 R(3,6)          =      1.568478    -0.091859    -0.020775     1.547703
	    9 R(6,7)          =      1.481075    -0.079993    -0.014366     1.466709
	   10 R(6,16)         =      1.227390    -0.231088    -0.015363     1.212026
	   11 R(7,8)          =      1.411980    -0.108621    -0.015437     1.396543
	   12 R(7,12)         =      1.421609    -0.118263    -0.017953     1.403656
	   13 R(8,9)          =      1.401212    -0.142126    -0.019484     1.381728
	   14 R(8,18)         =      1.090658    -0.033187    -0.005767     1.084890
	   15 R(9,10)         =      1.422392    -0.145313    -0.020990     1.401403
	   16 R(9,17)         =      1.088615    -0.024629    -0.003790     1.084825
	   17 R(10,11)        =      1.413384    -0.112216    -0.015965     1.397419
	   18 R(10,13)        =      1.780089    -0.096471    -0.021328     1.758761
	   19 R(11,12)        =      1.405942    -0.141322    -0.019287     1.386655
	   20 R(11,20)        =      1.091354    -0.021099    -0.003667     1.087687
	   21 R(13,14)        =      1.816682    -0.007696     0.003255     1.819937
	   22 R(14,21)        =      1.094489    -0.017854    -0.002729     1.091760
	   23 R(14,22)        =      1.093979    -0.014738    -0.001383     1.092596
	   24 R(14,23)        =      1.092538    -0.002227     0.001556     1.094094
	   25 B(1,2,3)        =    116.006449    -0.000061    -0.070043   115.936406
	   26 B(1,2,15)       =    120.378956     0.000816     2.304599   122.683555
	   27 B(1,12,7)       =    119.988580     0.000216     0.432855   120.421435
	   28 B(1,12,11)      =    120.273978    -0.000406    -1.087990   119.185988
	   29 B(2,1,12)       =    128.091131    -0.000192    -0.682700   127.408431
	   30 B(2,1,19)       =    112.172189     0.000382     1.587976   113.760164
	   31 B(2,3,4)        =    107.443466    -0.000028    -0.147114   107.296353
	   32 B(2,3,5)        =    107.521954    -0.000025    -0.102870   107.419084
	   33 B(2,3,6)        =    117.343748     0.000075     0.513183   117.856931
	   34 B(3,2,15)       =    123.614110    -0.000755    -2.234210   121.379899
	   35 B(3,6,7)        =    117.631916    -0.000152    -0.392331   117.239584
	   36 B(3,6,16)       =    120.524318    -0.000753    -2.204782   118.319536
	   37 B(4,3,5)        =    108.233093    -0.000019    -0.258341   107.974752
	   38 B(4,3,6)        =    107.989705    -0.000008    -0.061575   107.928130
	   39 B(5,3,6)        =    108.016783    -0.000002    -0.002808   108.013975
	   40 B(6,7,8)        =    120.155691    -0.000038    -0.023482   120.132209
	   41 B(6,7,12)       =    120.925723     0.000114     0.200273   121.125997
	   42 B(7,6,16)       =    121.843648     0.000904     2.596880   124.440528
	   43 B(7,8,9)        =    121.111930     0.000065     0.178447   121.290377
	   44 B(7,8,18)       =    118.170102    -0.000012    -0.003357   118.166745
	   45 B(7,12,11)      =    119.736520     0.000190     0.654269   120.390789
	   46 B(8,7,12)       =    118.917681    -0.000076    -0.175919   118.741763
	   47 B(8,9,10)       =    120.386569    -0.000223    -0.722686   119.663884
	   48 B(8,9,17)       =    117.855257     0.000288     1.122878   118.978135
	   49 B(9,8,18)       =    120.717897    -0.000053    -0.175256   120.542641
	   50 B(9,10,11)      =    118.315233     0.000448     1.347409   119.662641
	   51 B(9,10,13)      =    126.650444    -0.000500    -1.475978   125.174466
	   52 B(10,9,17)      =    121.745897    -0.000066    -0.400342   121.345556
	   53 B(10,11,12)     =    121.529690    -0.000405    -1.280600   120.249089
	   54 B(10,11,20)     =    119.355915     0.000201     0.626555   119.982469
	   55 B(10,13,14)     =    108.061818    -0.001499    -4.287232   103.774586
	   56 B(11,10,13)     =    115.018348     0.000052     0.128072   115.146419
	   57 B(12,1,19)      =    119.736432    -0.000190    -0.905396   118.831036
	   58 B(12,11,20)     =    119.114181     0.000204     0.653920   119.768101
	   59 B(13,14,21)     =    108.427080    -0.000436    -2.030990   106.396090
	   60 B(13,14,22)     =    109.393932     0.000402     2.050803   111.444736
	   61 B(13,14,23)     =    110.720103     0.000116     0.387085   111.107188
	   62 B(21,14,22)     =    110.236895     0.000008     0.083648   110.320543
	   63 B(21,14,23)     =    107.746015     0.000018    -0.376558   107.369457
	   64 B(22,14,23)     =    110.284710    -0.000122    -0.221329   110.063382
	   65 D(1,2,3,4)      =    120.586549     0.000005     0.209679   120.796227
	   66 D(1,2,3,5)      =   -123.109892    -0.000006    -0.216425  -123.326317
	   67 D(1,2,3,6)      =     -1.212212     0.000001     0.054541    -1.157671
	   68 D(1,12,7,6)     =     -0.487501     0.000001     0.109992    -0.377508
	   69 D(1,12,7,8)     =    179.167049     0.000003     0.390716   179.557765
	   70 D(1,12,11,10)   =   -179.547598    -0.000003    -0.309013  -179.856611
	   71 D(1,12,11,20)   =      0.282518    -0.000004    -0.351531    -0.069013
	   72 D(2,1,12,7)     =      0.372133    -0.000001    -0.058635     0.313498
	   73 D(2,1,12,11)    =   -179.978153    -0.000002    -0.192915  -180.171068
	   74 D(2,3,6,7)      =      1.106407    -0.000001    -0.007271     1.099136
	   75 D(2,3,6,16)     =   -179.016432    -0.000001    -0.090383  -179.106815
	   76 D(3,2,1,12)     =      0.513503    -0.000000    -0.030272     0.483232
	   77 D(3,2,1,19)     =   -179.670597    -0.000001    -0.071814  -179.742411
	   78 D(3,6,7,8)      =   -179.920481    -0.000002    -0.357509  -180.277990
	   79 D(3,6,7,12)     =     -0.270188    -0.000000    -0.073422    -0.343610
	   80 D(4,3,2,15)     =    -59.160467     0.000004     0.088972   -59.071496
	   81 D(4,3,6,7)      =   -120.409339    -0.000003    -0.121851  -120.531189
	   82 D(4,3,6,16)     =     59.467822    -0.000003    -0.204963    59.262859
	   83 D(5,3,2,15)     =     57.143092    -0.000007    -0.337132    56.805960
	   84 D(5,3,6,7)      =    122.748019     0.000003     0.215826   122.963845
	   85 D(5,3,6,16)     =    -57.374821     0.000003     0.132714   -57.242107
	   86 D(6,3,2,15)     =    179.040772    -0.000000    -0.066166   178.974606
	   87 D(6,7,8,9)      =   -179.838553    -0.000001    -0.111305  -179.949858
	   88 D(6,7,8,18)     =      0.065651    -0.000002    -0.191600    -0.125949
	   89 D(6,7,12,11)    =    179.860893     0.000002     0.252034   180.112927
	   90 D(7,8,9,10)     =     -0.136146     0.000002     0.153011     0.016866
	   91 D(7,8,9,17)     =    178.611457     0.000001     0.140619   178.752076
	   92 D(7,12,1,19)    =   -179.431525    -0.000001    -0.019239  -179.450764
	   93 D(7,12,11,10)   =      0.103000    -0.000004    -0.444025    -0.341026
	   94 D(7,12,11,20)   =    179.933115    -0.000005    -0.486543   179.446573
	   95 D(8,7,6,16)     =      0.204082    -0.000002    -0.262235    -0.058153
	   96 D(8,7,12,11)    =     -0.484558     0.000004     0.532757     0.048200
	   97 D(8,9,10,11)    =     -0.248919    -0.000001    -0.059867    -0.308786
	   98 D(8,9,10,13)    =   -178.716373    -0.000000    -0.041385  -178.757759
	   99 D(9,8,7,12)     =      0.504170    -0.000003    -0.389962     0.114208
	  100 D(9,10,11,12)   =      0.264706     0.000003     0.206346     0.471052
	  101 D(9,10,11,20)   =   -179.565008     0.000003     0.248919  -179.316089
	  102 *D(9,10,13,14)  =      4.711967     0.000000    -0.000000     4.711967
	  103 D(10,9,8,18)    =    179.962086     0.000002     0.235027   180.197113
	  104 *D(10,13,14,21) =    144.124502     0.000000     0.000000   144.124502
	  105 D(10,13,14,22)  =    -95.622391    -0.000004     0.044710   -95.577681
	  106 D(10,13,14,23)  =     26.121387     0.000040     1.442301    27.563688
	  107 D(11,10,9,17)   =   -178.946822    -0.000002    -0.066426  -179.013248
	  108 *D(11,10,13,14) =   -173.799167    -0.000000     0.000000  -173.799167
	  109 D(11,12,1,19)   =      0.218189    -0.000002    -0.153519     0.064670
	  110 D(12,1,2,15)    =   -179.730708    -0.000000     0.079766  -179.650942
	  111 D(12,7,6,16)    =    179.854375     0.000000     0.021852   179.876227
	  112 D(12,7,8,18)    =   -179.591627    -0.000004    -0.470256  -180.061883
	  113 D(12,11,10,13)  =    178.907880    -0.000001     0.162654   179.070534
	  114 D(13,10,9,17)   =      2.585724    -0.000000    -0.047944     2.537780
	  115 D(13,10,11,20)  =     -0.921834     0.000000     0.205227    -0.716607
	  116 D(15,2,1,19)    =      0.085191    -0.000000     0.038224     0.123415
	  117 D(17,9,8,18)    =     -1.290311     0.000002     0.222634    -1.067677
	 ---------------------------------------------------------------------------
	Successfully symmetrized geometry.

  ==> Convergence Check <==

  Measures of convergence in internal coordinates in au.
  Criteria marked as inactive (o), active & met (*), and active & unmet ( ).
  --------------------------------------------------------------------------------------------- ~
   Step     Total Energy     Delta E     MAX Force     RMS Force      MAX Disp      RMS Disp    ~
  --------------------------------------------------------------------------------------------- ~
    Convergence Criteria             o    2.50e-03 *    1.70e-03 *    1.00e-02 *    6.70e-03 *  ~
  --------------------------------------------------------------------------------------------- ~
      1   -1188.11351802   -1.19e+03 o    2.80e-02      6.77e-03      7.48e-02      1.83e-02    ~
  ---------------------------------------------------------------------------------------------

	Writing optimization data to binary file.
	Structure for next step:
	Cartesian Geometry (in Angstrom)
	    N    -1.0190284075  -1.4834715074   0.0226371986
	    C    -2.3031491588  -1.1396590637   0.3513274574
	    C    -2.5607637994   0.3643312357   0.5843927100
	    F    -3.5092701308   0.7542607998  -0.3059869190
	    F    -3.0770335671   0.4995518341   1.8325677072
	    C    -1.3599056289   1.3321961297   0.4556971281
	    C    -0.0632144477   0.7489860540   0.0955687754
	    C     1.0596697274   1.5677599764  -0.0425331963
	    C     2.2923945854   1.0439630784  -0.3819406468
	    C     2.4256233784  -0.3349511676  -0.5935412366
	    C     1.3117863620  -1.1670183079  -0.4527876276
	    C     0.0780650059  -0.6315585558  -0.1151097990
	    S     3.9264168281  -1.1574130536  -0.9990254400
	    C     5.1784699769   0.1609379173  -0.9184987776
	    O    -3.1937634616  -1.9561517599   0.4539670805
	    O    -1.5493487296   2.5129295913   0.6531500959
	    H     3.1351479431   1.7169118139  -0.4992099505
	    H     0.9396765457   2.6334566342   0.1214156782
	    H    -0.8879194560  -2.4772634439  -0.1268747108
	    H     1.4116994711  -2.2393723241  -0.6048934574
	    H     6.0854521627  -0.2992500263  -0.5215735023
	    H     5.3709748075   0.5897947735  -1.9047996384
	    H     4.8783041476   0.9472085791  -0.2194136993
			--------------------------
			 OPTKING Finished Execution 
			--------------------------

    Structure for next step:
    Molecular point group: c1
    Full point group: C1

    Geometry (in Angstrom), charge = 0, multiplicity = 1:

    N           -1.035801228575    -1.480040269292     0.026369116021
    C           -2.319921984859    -1.136227824286     0.355059376047
    C           -2.577536626500     0.367762481043     0.588124629628
    F           -3.526042961647     0.757692046693    -0.302255002893
    F           -3.093806396268     0.502983079931     1.836299631736
    C           -1.376678451265     1.335627378824     0.459429047223
    C           -0.079987265004     0.752417300859     0.099300693056
    C            1.042896914568     1.571191226526    -0.038801279190
    C            2.275621777343     1.047394326388    -0.378208731026
    C            2.408850570936    -0.331519924967    -0.589809321607
    C            1.295013550090    -1.163587068570    -0.449055712093
    C            0.061292189170    -0.628127314414    -0.111377882149
    S            3.909644026530    -1.153981814237    -0.995293526643
    C            5.161697180266     0.164369161882    -0.914766863951
    O           -3.210536291193    -1.952720523673     0.457698999601
    O           -1.566121552714     2.516360845047     0.656882015755
    H            3.118375138373     1.720343064536    -0.495478035134
    H            0.922903732329     2.636887888438     0.125147595941
    H           -0.904692276529    -2.473832209718    -0.123142793957
    H            1.394926659578    -2.235941089015    -0.601161542441
    H            6.068679369551    -0.295818783566    -0.517841587021
    H            5.354202011558     0.593226019692    -1.901067728553
    H            4.861531349700     0.950639826773    -0.215681782886

gradient() will perform analytic gradient computation.

*** tstart() called on cpu-spot-dy-c5n2xlarge-1
*** at Tue Jun 22 06:44:24 2021

   => Loading Basis Set <=

    Name: 6-31+G*
    Role: ORBITAL
    Keyword: BASIS
    atoms 1             entry N          line   138 file /fsx/users/francis/anaconda3/envs/poltype-dev/share/psi4/basis/6-31pgs.gbs 
    atoms 2-3, 6-12, 14 entry C          line   119 file /fsx/users/francis/anaconda3/envs/poltype-dev/share/psi4/basis/6-31pgs.gbs 
    atoms 4-5           entry F          line   176 file /fsx/users/francis/anaconda3/envs/poltype-dev/share/psi4/basis/6-31pgs.gbs 
    atoms 13            entry S          line   344 file /fsx/users/francis/anaconda3/envs/poltype-dev/share/psi4/basis/6-31pgs.gbs 
    atoms 15-16         entry O          line   157 file /fsx/users/francis/anaconda3/envs/poltype-dev/share/psi4/basis/6-31pgs.gbs 
    atoms 17-23         entry H          line    46 file /fsx/users/francis/anaconda3/envs/poltype-dev/share/psi4/basis/6-31pgs.gbs 


         ---------------------------------------------------------
                                   SCF
               by Justin Turney, Rob Parrish, Andy Simmonett
                          and Daniel G. A. Smith
                              RKS Reference
                        8 Threads,  15258 MiB Core
         ---------------------------------------------------------

  ==> Geometry <==

    Molecular point group: c1
    Full point group: C1

    Geometry (in Angstrom), charge = 0, multiplicity = 1:

       Center              X                  Y                   Z               Mass       
    ------------   -----------------  -----------------  -----------------  -----------------
         N           -1.035801228575    -1.480040269292     0.026369116021    14.003074004430
         C           -2.319921984859    -1.136227824286     0.355059376047    12.000000000000
         C           -2.577536626500     0.367762481043     0.588124629628    12.000000000000
         F           -3.526042961647     0.757692046693    -0.302255002893    18.998403162730
         F           -3.093806396268     0.502983079931     1.836299631736    18.998403162730
         C           -1.376678451265     1.335627378824     0.459429047223    12.000000000000
         C           -0.079987265004     0.752417300859     0.099300693056    12.000000000000
         C            1.042896914568     1.571191226526    -0.038801279190    12.000000000000
         C            2.275621777343     1.047394326388    -0.378208731026    12.000000000000
         C            2.408850570936    -0.331519924967    -0.589809321607    12.000000000000
         C            1.295013550090    -1.163587068570    -0.449055712093    12.000000000000
         C            0.061292189170    -0.628127314414    -0.111377882149    12.000000000000
         S            3.909644026530    -1.153981814237    -0.995293526643    31.972071174400
         C            5.161697180266     0.164369161882    -0.914766863951    12.000000000000
         O           -3.210536291193    -1.952720523673     0.457698999601    15.994914619570
         O           -1.566121552714     2.516360845047     0.656882015755    15.994914619570
         H            3.118375138373     1.720343064536    -0.495478035134     1.007825032230
         H            0.922903732329     2.636887888438     0.125147595941     1.007825032230
         H           -0.904692276529    -2.473832209718    -0.123142793957     1.007825032230
         H            1.394926659578    -2.235941089015    -0.601161542441     1.007825032230
         H            6.068679369551    -0.295818783566    -0.517841587021     1.007825032230
         H            5.354202011558     0.593226019692    -1.901067728553     1.007825032230
         H            4.861531349700     0.950639826773    -0.215681782886     1.007825032230

  Running in c1 symmetry.

  Rotational constants: A =      0.03958  B =      0.00832  C =      0.00715 [cm^-1]
  Rotational constants: A =   1186.54916  B =    249.36650  C =    214.43686 [MHz]
  Nuclear repulsion = 1188.914412517810433

  Charge       = 0
  Multiplicity = 1
  Electrons    = 124
  Nalpha       = 62
  Nbeta        = 62

  ==> Algorithm <==

  SCF Algorithm Type is DF.
  DIIS enabled.
  MOM disabled.
  Fractional occupation disabled.
  Guess Type is READ.
  Energy threshold   = 1.00e-08
  Density threshold  = 1.00e-08
  Integral threshold = 0.00e+00

  ==> Primary Basis <==

  Basis Set: 6-31+G*
    Blend: 6-31+G*
    Number of shells: 144
    Number of basis function: 322
    Number of Cartesian functions: 322
    Spherical Harmonics?: false
    Max angular momentum: 2

  ==> DFT Potential <==

   => Composite Functional: WB97X-D <= 

    wB97X-D Hyb-GGA Exchange-Correlation Functional

    J.-D. Chai and M. Head-Gordon, Phys. Chem. Chem. Phys. 10, 6615 (2008)

    Deriv               =              1
    GGA                 =           TRUE
    Meta                =          FALSE

    Exchange Hybrid     =           TRUE
    MP2 Hybrid          =          FALSE

   => Exchange-Correlation Functionals <=

    1.0000   wB97D range-separated functional

   => Exact (HF) Exchange <=

    0.7780            HF,LR [omega = 0.2000]
    0.2220               HF 

   => Molecular Quadrature <=

    Radial Scheme          =       TREUTLER
    Pruning Scheme         =           FLAT
    Nuclear Scheme         =       TREUTLER

    BS radius alpha        =              1
    Pruning alpha          =              1
    Radial Points          =             75
    Spherical Points       =            302
    Total Points           =         520850
    Total Blocks           =           3878
    Max Points             =            256
    Max Functions          =            288

   => WB97X-D: Empirical Dispersion <=

    Chai and Head-Gordon Dispersion Correction
    Chai, J.-D.; Head-Gordon, M. (2010), J. Chem. Phys., 132: 6615-6620

        s6 =       1.000000

   => Loading Basis Set <=

    Name: (6-31+G* AUX)
    Role: JKFIT
    Keyword: DF_BASIS_SCF
    atoms 1             entry N          line   252 file /fsx/users/francis/anaconda3/envs/poltype-dev/share/psi4/basis/heavy-aug-cc-pvdz-jkfit.gbs 
    atoms 2-3, 6-12, 14 entry C          line   194 file /fsx/users/francis/anaconda3/envs/poltype-dev/share/psi4/basis/heavy-aug-cc-pvdz-jkfit.gbs 
    atoms 4-5           entry F          line   368 file /fsx/users/francis/anaconda3/envs/poltype-dev/share/psi4/basis/heavy-aug-cc-pvdz-jkfit.gbs 
    atoms 13            entry S          line   730 file /fsx/users/francis/anaconda3/envs/poltype-dev/share/psi4/basis/heavy-aug-cc-pvdz-jkfit.gbs 
    atoms 15-16         entry O          line   310 file /fsx/users/francis/anaconda3/envs/poltype-dev/share/psi4/basis/heavy-aug-cc-pvdz-jkfit.gbs 
    atoms 17-23         entry H          line   116 file /fsx/users/francis/anaconda3/envs/poltype-dev/share/psi4/basis/heavy-aug-cc-pvdz-jkfit.gbs 

   => Loading Basis Set <=

    Name: 6-31+G*
    Role: ORBITAL
    Keyword: BASIS
    atoms 1             entry N          line   138 file /fsx/users/francis/anaconda3/envs/poltype-dev/share/psi4/basis/6-31pgs.gbs 
    atoms 2-3, 6-12, 14 entry C          line   119 file /fsx/users/francis/anaconda3/envs/poltype-dev/share/psi4/basis/6-31pgs.gbs 
    atoms 4-5           entry F          line   176 file /fsx/users/francis/anaconda3/envs/poltype-dev/share/psi4/basis/6-31pgs.gbs 
    atoms 13            entry S          line   344 file /fsx/users/francis/anaconda3/envs/poltype-dev/share/psi4/basis/6-31pgs.gbs 
    atoms 15-16         entry O          line   157 file /fsx/users/francis/anaconda3/envs/poltype-dev/share/psi4/basis/6-31pgs.gbs 
    atoms 17-23         entry H          line    46 file /fsx/users/francis/anaconda3/envs/poltype-dev/share/psi4/basis/6-31pgs.gbs 

  Reading orbitals from file 180, no projection.

  ==> Pre-Iterations <==

   -------------------------------------------------------
    Irrep   Nso     Nmo     Nalpha   Nbeta   Ndocc  Nsocc
   -------------------------------------------------------
     A        322     322       0       0       0       0
   -------------------------------------------------------
    Total     322     322      62      62      62       0
   -------------------------------------------------------

  ==> Integral Setup <==

  ==> DiskDFJK: Density-Fitted J/K Matrices <==

    J tasked:                  Yes
    K tasked:                  Yes
    wK tasked:                 Yes
    Omega:               2.000E-01
    OpenMP threads:              8
    Integrals threads:           8
    Memory [MiB]:             8435
    Algorithm:                Core
    Integral Cache:           NONE
    Schwarz Cutoff:          1E-12
    Fitting Condition:       1E-10

   => Auxiliary Basis Set <=

  Basis Set: (6-31+G* AUX)
    Blend: HEAVY-AUG-CC-PVDZ-JKFIT
    Number of shells: 523
    Number of basis function: 1840
    Number of Cartesian functions: 1840
    Spherical Harmonics?: false
    Max angular momentum: 3

  Cached 100.0% of DFT collocation blocks in 2.938 [GiB].

  Minimum eigenvalue in the overlap matrix is 4.5217263634E-07.
  Using Symmetric Orthogonalization.

  SCF Guess: Orbitals guess was supplied from a previous computation.

  ==> Iterations <==

                           Total Energy        Delta E     RMS |[F,P]|

   @DF-RKS iter   0: -1188.30638759788962   -1.18831e+03   1.12077e-03 
   @DF-RKS iter   1: -1188.11659394428534    1.89794e-01   2.17236e-04 DIIS
   @DF-RKS iter   2: -1188.11654998658332    4.39577e-05   2.56178e-04 DIIS
   @DF-RKS iter   3: -1188.11921162927024   -2.66164e-03   5.39723e-05 DIIS
   @DF-RKS iter   4: -1188.11931683449575   -1.05205e-04   1.38364e-05 DIIS
   @DF-RKS iter   5: -1188.11932597869850   -9.14420e-06   6.03090e-06 DIIS
   @DF-RKS iter   6: -1188.11932776653293   -1.78783e-06   1.40642e-06 DIIS
   @DF-RKS iter   7: -1188.11932791166828   -1.45135e-07   4.79892e-07 DIIS
   @DF-RKS iter   8: -1188.11932794194536   -3.02771e-08   2.65961e-07 DIIS
   @DF-RKS iter   9: -1188.11932794914401   -7.19865e-09   1.09296e-07 DIIS
   @DF-RKS iter  10: -1188.11932795075040   -1.60640e-09   5.36642e-08 DIIS
   @DF-RKS iter  11: -1188.11932795105986   -3.09456e-10   1.58925e-08 DIIS
   @DF-RKS iter  12: -1188.11932795109374   -3.38787e-11   8.13095e-09 DIIS
  Energy and wave function converged.


  ==> Post-Iterations <==

    Orbital Energies [Eh]
    ---------------------

    Doubly Occupied:                                                      

       1A    -89.085110     2A    -24.870602     3A    -24.870166  
       4A    -19.301048     5A    -19.291587     6A    -14.540583  
       7A    -10.499236     8A    -10.452558     9A    -10.427130  
      10A    -10.405021    11A    -10.387569    12A    -10.356344  
      13A    -10.350183    14A    -10.346930    15A    -10.346021  
      16A    -10.340893    17A     -8.102808    18A     -6.053456  
      19A     -6.049029    20A     -6.043006    21A     -1.389051  
      22A     -1.327928    23A     -1.191353    24A     -1.180648  
      25A     -1.098912    26A     -1.007446    27A     -0.944917  
      28A     -0.907390    29A     -0.889097    30A     -0.869164  
      31A     -0.800905    32A     -0.765944    33A     -0.753837  
      34A     -0.745934    35A     -0.697138    36A     -0.683294  
      37A     -0.668715    38A     -0.646473    39A     -0.630220  
      40A     -0.592523    41A     -0.587895    42A     -0.567979  
      43A     -0.562354    44A     -0.558277    45A     -0.554765  
      46A     -0.553633    47A     -0.549944    48A     -0.534091  
      49A     -0.516969    50A     -0.515189    51A     -0.506900  
      52A     -0.498651    53A     -0.489192    54A     -0.488046  
      55A     -0.475090    56A     -0.442465    57A     -0.434692  
      58A     -0.398524    59A     -0.394177    60A     -0.363857  
      61A     -0.340421    62A     -0.318635  

    Virtual:                                                              

      63A     -0.041899    64A      0.015101    65A      0.039672  
      66A      0.045906    67A      0.057757    68A      0.066578  
      69A      0.068706    70A      0.073215    71A      0.080472  
      72A      0.086543    73A      0.094356    74A      0.097651  
      75A      0.105374    76A      0.111842    77A      0.114872  
      78A      0.117318    79A      0.117812    80A      0.134865  
      81A      0.139308    82A      0.139917    83A      0.144457  
      84A      0.151862    85A      0.157235    86A      0.165969  
      87A      0.174710    88A      0.176086    89A      0.178287  
      90A      0.180968    91A      0.182979    92A      0.193320  
      93A      0.197606    94A      0.201607    95A      0.207504  
      96A      0.208085    97A      0.216340    98A      0.221746  
      99A      0.221870   100A      0.231143   101A      0.235625  
     102A      0.239221   103A      0.243804   104A      0.245351  
     105A      0.250232   106A      0.251367   107A      0.262663  
     108A      0.265886   109A      0.269104   110A      0.277413  
     111A      0.280395   112A      0.290438   113A      0.292212  
     114A      0.295835   115A      0.303215   116A      0.308632  
     117A      0.313515   118A      0.317786   119A      0.321946  
     120A      0.328678   121A      0.332529   122A      0.337863  
     123A      0.341073   124A      0.344671   125A      0.361410  
     126A      0.363002   127A      0.367827   128A      0.375645  
     129A      0.384152   130A      0.389359   131A      0.394401  
     132A      0.399058   133A      0.402617   134A      0.406751  
     135A      0.413180   136A      0.418735   137A      0.423003  
     138A      0.439422   139A      0.449204   140A      0.452840  
     141A      0.460562   142A      0.474369   143A      0.477907  
     144A      0.486938   145A      0.508877   146A      0.519377  
     147A      0.532647   148A      0.534096   149A      0.545974  
     150A      0.556172   151A      0.578556   152A      0.583067  
     153A      0.594016   154A      0.608153   155A      0.616593  
     156A      0.633637   157A      0.655022   158A      0.672091  
     159A      0.690761   160A      0.713325   161A      0.728129  
     162A      0.747022   163A      0.754520   164A      0.760011  
     165A      0.770200   166A      0.777559   167A      0.789086  
     168A      0.801821   169A      0.810541   170A      0.824388  
     171A      0.830470   172A      0.852252   173A      0.865494  
     174A      0.875803   175A      0.889920   176A      0.890739  
     177A      0.900751   178A      0.920653   179A      0.928889  
     180A      0.934475   181A      0.962307   182A      0.964887  
     183A      0.982284   184A      0.987820   185A      1.023482  
     186A      1.036265   187A      1.042425   188A      1.058403  
     189A      1.070100   190A      1.076859   191A      1.096234  
     192A      1.097980   193A      1.120488   194A      1.157893  
     195A      1.161350   196A      1.175569   197A      1.204946  
     198A      1.210119   199A      1.215415   200A      1.225066  
     201A      1.231609   202A      1.244787   203A      1.271332  
     204A      1.284112   205A      1.287688   206A      1.328394  
     207A      1.329885   208A      1.336153   209A      1.351064  
     210A      1.391816   211A      1.406258   212A      1.414373  
     213A      1.417929   214A      1.427961   215A      1.442577  
     216A      1.450504   217A      1.458571   218A      1.466949  
     219A      1.478130   220A      1.489713   221A      1.513558  
     222A      1.517305   223A      1.526106   224A      1.539213  
     225A      1.557051   226A      1.603709   227A      1.629080  
     228A      1.661502   229A      1.675970   230A      1.685101  
     231A      1.717676   232A      1.749929   233A      1.760472  
     234A      1.761614   235A      1.763358   236A      1.769071  
     237A      1.782254   238A      1.789872   239A      1.792517  
     240A      1.831363   241A      1.841697   242A      1.880117  
     243A      1.894999   244A      1.900129   245A      1.917005  
     246A      1.924745   247A      1.926697   248A      1.966993  
     249A      1.971597   250A      1.975803   251A      1.984250  
     252A      2.021283   253A      2.046419   254A      2.057233  
     255A      2.065945   256A      2.070589   257A      2.094504  
     258A      2.119617   259A      2.122057   260A      2.143394  
     261A      2.177720   262A      2.180358   263A      2.189096  
     264A      2.217673   265A      2.226341   266A      2.237416  
     267A      2.258627   268A      2.262795   269A      2.280440  
     270A      2.283607   271A      2.317960   272A      2.325163  
     273A      2.330198   274A      2.356708   275A      2.361974  
     276A      2.386516   277A      2.395164   278A      2.433931  
     279A      2.480807   280A      2.490469   281A      2.532053  
     282A      2.560335   283A      2.607229   284A      2.655678  
     285A      2.692320   286A      2.702152   287A      2.735358  
     288A      2.765619   289A      2.769329   290A      2.789171  
     291A      2.796475   292A      2.843102   293A      2.851645  
     294A      2.884758   295A      2.933636   296A      2.972949  
     297A      2.988803   298A      3.057724   299A      3.157817  
     300A      3.190569   301A      3.226333   302A      3.258153  
     303A      3.373269   304A      3.428005   305A      3.518045  
     306A      3.527399   307A      4.042852   308A      4.302338  
     309A      4.315981   310A      4.355392   311A      4.367739  
     312A      4.395578   313A      4.431459   314A      4.489302  
     315A      4.495009   316A      4.534079   317A      4.603760  
     318A      4.823757   319A      4.884770   320A      5.169223  
     321A      5.717586   322A      7.266314  

    Final Occupation by Irrep:
              A 
    DOCC [    62 ]

  @DF-RKS Final Energy: -1188.11932795109374

   => Energetics <=

    Nuclear Repulsion Energy =           1188.9144125178104332
    One-Electron Energy =               -3991.8019541678058886
    Two-Electron Energy =                1704.3440841296896906
    DFT Exchange-Correlation Energy =     -89.5623738307490385
    Empirical Dispersion Energy =          -0.0134966000389665
    VV10 Nonlocal Energy =                  0.0000000000000000
    Total Energy =                      -1188.1193279510937373

Computation Completed


Properties will be evaluated at   0.000000,   0.000000,   0.000000 [a0]

Properties computed using the SCF density matrix

  Nuclear Dipole Moment: [e a0]
     X:    25.8424      Y:    -0.3732      Z:    -4.9642

  Electronic Dipole Moment: [e a0]
     X:   -22.6498      Y:    -0.0284      Z:     4.2996

  Dipole Moment: [e a0]
     X:     3.1926      Y:    -0.4016      Z:    -0.6646     Total:     3.2857

  Dipole Moment: [D]
     X:     8.1148      Y:    -1.0209      Z:    -1.6892     Total:     8.3514


*** tstop() called on cpu-spot-dy-c5n2xlarge-1 at Tue Jun 22 06:45:23 2021
Module time:
	user time   =     440.37 seconds =       7.34 minutes
	system time =       6.60 seconds =       0.11 minutes
	total time  =         59 seconds =       0.98 minutes
Total time:
	user time   =    1148.87 seconds =      19.15 minutes
	system time =      20.73 seconds =       0.35 minutes
	total time  =        158 seconds =       2.63 minutes

*** tstart() called on cpu-spot-dy-c5n2xlarge-1
*** at Tue Jun 22 06:45:23 2021


         ------------------------------------------------------------
                                   SCF GRAD                          
                          Rob Parrish, Justin Turney,                
                       Andy Simmonett, and Alex Sokolov              
         ------------------------------------------------------------

  ==> Geometry <==

    Molecular point group: c1
    Full point group: C1

    Geometry (in Angstrom), charge = 0, multiplicity = 1:

       Center              X                  Y                   Z               Mass       
    ------------   -----------------  -----------------  -----------------  -----------------
         N           -1.035801228575    -1.480040269292     0.026369116021    14.003074004430
         C           -2.319921984859    -1.136227824286     0.355059376047    12.000000000000
         C           -2.577536626500     0.367762481043     0.588124629628    12.000000000000
         F           -3.526042961647     0.757692046693    -0.302255002893    18.998403162730
         F           -3.093806396268     0.502983079931     1.836299631736    18.998403162730
         C           -1.376678451265     1.335627378824     0.459429047223    12.000000000000
         C           -0.079987265004     0.752417300859     0.099300693056    12.000000000000
         C            1.042896914568     1.571191226526    -0.038801279190    12.000000000000
         C            2.275621777343     1.047394326388    -0.378208731026    12.000000000000
         C            2.408850570936    -0.331519924967    -0.589809321607    12.000000000000
         C            1.295013550090    -1.163587068570    -0.449055712093    12.000000000000
         C            0.061292189170    -0.628127314414    -0.111377882149    12.000000000000
         S            3.909644026530    -1.153981814237    -0.995293526643    31.972071174400
         C            5.161697180266     0.164369161882    -0.914766863951    12.000000000000
         O           -3.210536291193    -1.952720523673     0.457698999601    15.994914619570
         O           -1.566121552714     2.516360845047     0.656882015755    15.994914619570
         H            3.118375138373     1.720343064536    -0.495478035134     1.007825032230
         H            0.922903732329     2.636887888438     0.125147595941     1.007825032230
         H           -0.904692276529    -2.473832209718    -0.123142793957     1.007825032230
         H            1.394926659578    -2.235941089015    -0.601161542441     1.007825032230
         H            6.068679369551    -0.295818783566    -0.517841587021     1.007825032230
         H            5.354202011558     0.593226019692    -1.901067728553     1.007825032230
         H            4.861531349700     0.950639826773    -0.215681782886     1.007825032230

  Nuclear repulsion = 1188.914412517810433

  ==> Basis Set <==

  Basis Set: 6-31+G*
    Blend: 6-31+G*
    Number of shells: 144
    Number of basis function: 322
    Number of Cartesian functions: 322
    Spherical Harmonics?: false
    Max angular momentum: 2

  ==> DFJKGrad: Density-Fitted SCF Gradients <==

    Gradient:                    1
    J tasked:                  Yes
    K tasked:                  Yes
    wK tasked:                 Yes
    Omega:               2.000E-01
    OpenMP threads:              8
    Integrals threads:           8
    Memory [MiB]:            11444
    Schwarz Cutoff:          0E+00
    Fitting Condition:       1E-10

   => Auxiliary Basis Set <=

  Basis Set: (6-31+G* AUX)
    Blend: HEAVY-AUG-CC-PVDZ-JKFIT
    Number of shells: 523
    Number of basis function: 1840
    Number of Cartesian functions: 1840
    Spherical Harmonics?: false
    Max angular momentum: 3

  ==> DFT Potential <==

   => Composite Functional: WB97X-D <= 

    wB97X-D Hyb-GGA Exchange-Correlation Functional

    J.-D. Chai and M. Head-Gordon, Phys. Chem. Chem. Phys. 10, 6615 (2008)

    Deriv               =              1
    GGA                 =           TRUE
    Meta                =          FALSE

    Exchange Hybrid     =           TRUE
    MP2 Hybrid          =          FALSE

   => Exchange-Correlation Functionals <=

    1.0000   wB97D range-separated functional

   => Exact (HF) Exchange <=

    0.7780            HF,LR [omega = 0.2000]
    0.2220               HF 

   => Molecular Quadrature <=

    Radial Scheme          =       TREUTLER
    Pruning Scheme         =           FLAT
    Nuclear Scheme         =       TREUTLER

    BS radius alpha        =              1
    Pruning alpha          =              1
    Radial Points          =             75
    Spherical Points       =            302
    Total Points           =         520850
    Total Blocks           =           3878
    Max Points             =            256
    Max Functions          =            288


  -Total Gradient:
     Atom            X                  Y                   Z
    ------   -----------------  -----------------  -----------------
       1        0.002327250974     0.002828815186     0.000014629919
       2        0.002839012583     0.004300880451    -0.000243680759
       3        0.004906171262    -0.000860511466    -0.001659673615
       4       -0.001368518020     0.000498847961    -0.000359144218
       5       -0.001174753768     0.000422873146     0.001457039703
       6       -0.002672584158    -0.002866497948     0.000401117362
       7        0.001869588255    -0.001263749481    -0.000779234351
       8        0.000060408337    -0.000021971873    -0.000005099186
       9       -0.001260724680    -0.003401564341     0.001954334834
      10       -0.000291989063     0.002060565449    -0.001368112156
      11        0.000079194449     0.001137519550     0.001043406293
      12        0.003087762693    -0.000126616360    -0.000743659267
      13       -0.003372151262    -0.003715160535    -0.000527163788
      14        0.000472755379     0.001042571623    -0.002119178996
      15       -0.003644415923    -0.004026019084     0.000362970904
      16        0.000304266666     0.001334292848     0.000016606505
      17        0.002380333935     0.000646335261     0.000300716081
      18        0.000306609600    -0.000525182564    -0.000015489190
      19       -0.000964236703    -0.000453193591     0.000204420431
      20       -0.000116289220    -0.000311753302    -0.000133638976
      21       -0.001184209185     0.000027603085     0.002423381274
      22        0.000389011327    -0.000184805036    -0.000969139420
      23       -0.002107980389     0.002854557299     0.000697002839


*** tstop() called on cpu-spot-dy-c5n2xlarge-1 at Tue Jun 22 06:45:46 2021
Module time:
	user time   =     145.09 seconds =       2.42 minutes
	system time =       3.57 seconds =       0.06 minutes
[...]
	   Coordinate                Previous        Force       Change         New 
	   ----------                --------       ------       ------       ------
	    1 R(1,2)          =      1.370300     0.000084     0.000051     1.370350
	    2 R(1,12)         =      1.398986     0.000056     0.000061     1.399047
	    3 R(1,19)         =      1.012858    -0.000006    -0.000010     1.012848
	    4 R(2,3)          =      1.545566    -0.000011     0.000089     1.545655
	    5 R(2,15)         =      1.208627    -0.000405    -0.000011     1.208617
	    6 R(3,4)          =      1.374537    -0.000710    -0.000486     1.374051
	    7 R(3,5)          =      1.336541     0.001861     0.000606     1.337146
	    8 R(3,6)          =      1.549567     0.000644     0.000282     1.549849
	    9 R(6,7)          =      1.466760     0.000582     0.000331     1.467091
	   10 R(6,16)         =      1.210246    -0.000280     0.000017     1.210263
	   11 R(7,8)          =      1.397651    -0.000198     0.000056     1.397707
	   12 R(7,12)         =      1.405752     0.000351     0.000126     1.405878
	   13 R(8,9)          =      1.384026     0.000657     0.000272     1.384298
	   14 R(8,18)         =      1.085820     0.000045     0.000028     1.085848
	   15 R(9,10)         =      1.404054    -0.000642    -0.000229     1.403825
	   16 R(9,17)         =      1.082976     0.000404     0.000318     1.083294
	   17 R(10,11)        =      1.400342     0.000222     0.000013     1.400355
	   18 R(10,13)        =      1.765527    -0.000479    -0.000324     1.765203
	   19 R(11,12)        =      1.390352    -0.000390    -0.000095     1.390257
	   20 R(11,20)        =      1.087342     0.000017     0.000019     1.087360
	   21 R(13,14)        =      1.814841    -0.000341    -0.000188     1.814653
	   22 R(14,21)        =      1.092694    -0.000164     0.000041     1.092734
	   23 R(14,22)        =      1.091013     0.000186     0.000031     1.091044
	   24 R(14,23)        =      1.091600     0.000431     0.000298     1.091898
	   25 B(1,2,3)        =    114.739951    -0.000001    -0.013070   114.726882
	   26 B(1,2,15)       =    123.249416    -0.000003    -0.022012   123.227404
	   27 B(1,12,7)       =    120.709782     0.000002     0.019109   120.728891
	   28 B(1,12,11)      =    119.196620     0.000000    -0.008091   119.188530
	   29 B(2,1,12)       =    126.574835    -0.000001    -0.017395   126.557440
	   30 B(2,1,19)       =    114.695886     0.000003     0.019722   114.715608
	   31 B(2,3,4)        =    105.377760     0.000020     0.140838   105.518598
	   32 B(2,3,5)        =    109.517240    -0.000008    -0.065406   109.451834
	   33 B(2,3,6)        =    116.711642    -0.000004    -0.045185   116.666457
	   34 B(3,2,15)       =    121.929769     0.000003     0.029246   121.959015
	   35 B(3,6,7)        =    115.344641    -0.000001    -0.017482   115.327159
	   36 B(3,6,16)       =    119.452722     0.000004     0.032168   119.484890
	   37 B(4,3,5)        =    108.423760    -0.000001     0.004925   108.428685
	   38 B(4,3,6)        =    105.694988     0.000003     0.064027   105.759015
	   39 B(5,3,6)        =    110.640839    -0.000008    -0.078223   110.562616
	   40 B(6,7,8)        =    120.471868     0.000002     0.019869   120.491737
	   41 B(6,7,12)       =    120.760096    -0.000004    -0.028124   120.731972
	   42 B(7,6,16)       =    125.119003    -0.000002    -0.016258   125.102745
	   43 B(7,8,9)        =    121.556962     0.000000     0.005952   121.562914
	   44 B(7,8,18)       =    117.951514    -0.000001    -0.010424   117.941090
	   45 B(7,12,11)      =    120.070928    -0.000002    -0.011864   120.059064
	   46 B(8,7,12)       =    118.760208     0.000002     0.007079   118.767286
	   47 B(8,9,10)       =    119.543198    -0.000005    -0.033432   119.509765
	   48 B(8,9,17)       =    118.994891     0.000006     0.059205   119.054096
	   49 B(9,8,18)       =    120.488816     0.000001     0.004489   120.493305
	   50 B(9,10,11)      =    119.447631     0.000005     0.037765   119.485396
	   51 B(9,10,13)      =    125.696660    -0.000002    -0.013944   125.682716
	   52 B(10,9,17)      =    121.434330    -0.000001    -0.024796   121.409533
	   53 B(10,11,12)     =    120.617630    -0.000001    -0.005958   120.611673
	   54 B(10,11,20)     =    119.739206    -0.000000     0.000843   119.740049
	   55 B(10,13,14)     =    106.120809    -0.000009    -0.088792   106.032017
	   56 B(11,10,13)     =    114.839337    -0.000003    -0.023833   114.815504
	   57 B(12,1,19)      =    118.599055    -0.000002    -0.016588   118.582467
	   58 B(12,11,20)     =    119.641165     0.000001     0.005575   119.646739
	   59 B(13,14,21)     =    106.368288    -0.000006    -0.072655   106.295632
	   60 B(13,14,22)     =    112.056657    -0.000001    -0.009098   112.047559
	   61 B(13,14,23)     =    111.092698     0.000006     0.057993   111.150691
	   62 B(21,14,22)     =    110.746866    -0.000003    -0.046453   110.700413
	   63 B(21,14,23)     =    106.181731     0.000007     0.067907   106.249638
	   64 B(22,14,23)     =    110.174039    -0.000001     0.003302   110.177341
	   65 D(1,2,3,4)      =     92.991904    -0.000002    -0.119349    92.872555
	   66 D(1,2,3,5)      =   -150.569073    -0.000001    -0.070277  -150.639350
	   67 D(1,2,3,6)      =    -23.910629    -0.000006    -0.273338   -24.183967
	   68 D(1,12,7,6)     =     -0.797931    -0.000001     0.060503    -0.737428
	   69 D(1,12,7,8)     =    178.189016    -0.000001    -0.012749   178.176267
	   70 D(1,12,11,10)   =   -178.711187     0.000001    -0.021697  -178.732885
	   71 D(1,12,11,20)   =      0.773208     0.000001     0.041531     0.814739
	   72 D(2,1,12,7)     =      3.040217    -0.000000    -0.114493     2.925724
	   73 D(2,1,12,11)    =   -178.690453    -0.000002    -0.146670  -178.837123
	   74 D(2,3,6,7)      =     25.912571     0.000005     0.233269    26.145840
	   75 D(2,3,6,16)     =   -157.243187     0.000004     0.203168  -157.040019
	   76 D(3,2,1,12)     =      9.825998     0.000004     0.222982    10.048980
	   77 D(3,2,1,19)     =   -174.411197     0.000002    -0.003180  -174.414377
	   78 D(3,6,7,8)      =    167.245204    -0.000001    -0.055400   167.189804
	   79 D(3,6,7,12)     =    -13.785203    -0.000002    -0.130058   -13.915261
	   80 D(4,3,2,15)     =    -83.837673     0.000002    -0.006213   -83.843886
	   81 D(4,3,6,7)      =    -90.815487    -0.000001     0.036945   -90.778542
	   82 D(4,3,6,16)     =     86.028755    -0.000001     0.006844    86.035599
	   83 D(5,3,2,15)     =     32.601350     0.000003     0.042859    32.644209
	   84 D(5,3,6,7)      =    152.013511    -0.000000     0.034660   152.048171
	   85 D(5,3,6,16)     =    -31.142247    -0.000001     0.004559   -31.137688
	   86 D(6,3,2,15)     =    159.259794    -0.000002    -0.160202   159.099592
	   87 D(6,7,8,9)      =    179.514191    -0.000001    -0.064177   179.450014
	   88 D(6,7,8,18)     =     -1.081909    -0.000001    -0.062280    -1.144189
	   89 D(6,7,12,11)    =   -179.052166     0.000001     0.092887  -178.959279
	   90 D(7,8,9,10)     =     -0.479451    -0.000000    -0.004830    -0.484281
	   91 D(7,8,9,17)     =    177.638047     0.000000     0.028325   177.666372
	   92 D(7,12,1,19)    =   -172.574882     0.000002     0.118121  -172.456760
	   93 D(7,12,11,10)   =     -0.430574    -0.000001    -0.053107    -0.483681
	   94 D(7,12,11,20)   =    179.053821    -0.000000     0.010121   179.063942
	   95 D(8,7,6,16)     =     -9.395093    -0.000001    -0.025104    -9.420197
	   96 D(8,7,12,11)    =     -0.065219     0.000000     0.019636    -0.045584
	   97 D(8,9,10,11)    =     -0.024698    -0.000000    -0.028301    -0.052999
	   98 D(8,9,10,13)    =   -178.473096    -0.000000    -0.027424  -178.500520
	   99 D(9,8,7,12)     =      0.524232     0.000000     0.009394     0.533627
	  100 D(9,10,11,12)   =      0.476728     0.000001     0.057488     0.534215
	  101 D(9,10,11,20)   =   -179.007164     0.000000    -0.005824  -179.012988
	  102 *D(9,10,13,14)  =      4.711967    -0.000000    -0.000000     4.711967
	  103 D(10,9,8,18)    =   -179.868397    -0.000000    -0.006688  -179.875085
	  104 *D(10,13,14,21) =    144.124502    -0.000000    -0.000000   144.124502
	  105 D(10,13,14,22)  =    -94.719847    -0.000002    -0.109601   -94.829448
	  106 D(10,13,14,23)  =     28.998682    -0.000002    -0.068765    28.929917
	  107 D(11,10,9,17)   =   -178.094910    -0.000001    -0.063877  -178.158787
	  108 *D(11,10,13,14) =   -173.799167     0.000000     0.000000  -173.799167
	  109 D(11,12,1,19)   =      5.694448     0.000000     0.085945     5.780392
	  110 D(12,1,2,15)    =   -173.391503    -0.000000     0.110063  -173.281440
	  111 D(12,7,6,16)    =    169.574500    -0.000001    -0.099761   169.474739
	  112 D(12,7,8,18)    =    179.928133     0.000000     0.011291   179.939424
	  113 D(12,11,10,13)  =    179.088224     0.000001     0.056727   179.144951
	  114 D(13,10,9,17)   =      3.456693    -0.000001    -0.063000     3.393692
	  115 D(13,10,11,20)  =     -0.395668     0.000000    -0.006584    -0.402252
	  116 D(15,2,1,19)    =      2.371301    -0.000002    -0.116098     2.255203
	  117 D(17,9,8,18)    =     -1.750900     0.000000     0.026467    -1.724432
	  118 R(1,X)          =     -1.004326    -0.000061    -0.000349    -1.004674
	  119 R(1,Y)          =     -1.506978    -0.000093     0.000085    -1.506894
	  120 R(1,Z)          =      0.187257    -0.000220    -0.001132     0.186125
	  121 R(2,X)          =     -2.257627     0.000358     0.000262    -2.257365
	  122 R(2,Y)          =     -1.177496     0.000120     0.000199    -1.177297
	  123 R(2,Z)          =      0.632676     0.001060     0.000655     0.633330
	  124 R(3,X)          =     -2.555045    -0.000561    -0.000365    -2.555410
	  125 R(3,Y)          =      0.338859     0.000002     0.000220     0.339079
	  126 R(3,Z)          =      0.664043    -0.002495    -0.002018     0.662025
	  127 R(4,X)          =     -3.146342    -0.000762    -0.000423    -3.146764
	  128 R(4,Y)          =      0.619410     0.002159     0.001024     0.620433
	  129 R(4,Z)          =     -0.544679    -0.001089    -0.001251    -0.545930
	  130 R(5,X)          =     -3.434560    -0.000922    -0.000195    -3.434756
	  131 R(5,Y)          =      0.601381     0.000234     0.000346     0.601727
	  132 R(5,Z)          =      1.635577    -0.000324    -0.001066     1.634511
	  133 R(6,X)          =     -1.332979    -0.000044     0.000003    -1.332976
	  134 R(6,Y)          =      1.286460     0.000146    -0.000026     1.286434
	  135 R(6,Z)          =      0.762850    -0.000181     0.000194     0.763043
	  136 R(7,X)          =     -0.075272     0.000524     0.000100    -0.075173
	  137 R(7,Y)          =      0.746122     0.000396     0.000320     0.746442
	  138 R(7,Z)          =      0.235978    -0.000702    -0.000851     0.235127
	  139 R(8,X)          =      1.022830     0.000572     0.000436     1.023267
	  140 R(8,Y)          =      1.584464     0.000120     0.000101     1.584566
	  141 R(8,Z)          =      0.024364    -0.000240    -0.000341     0.024023
	  142 R(9,X)          =      2.223175     0.001193     0.000778     2.223954
	  143 R(9,Y)          =      1.096882    -0.000199    -0.000101     1.096782
	  144 R(9,Z)          =     -0.462426    -0.000258    -0.000068    -0.462494
	  145 R(10,X)         =      2.351180    -0.000226    -0.000098     2.351082
	  146 R(10,Y)         =     -0.272845     0.000268     0.000014    -0.272832
	  147 R(10,Z)         =     -0.743188     0.000027     0.000118    -0.743070
	  148 R(11,X)         =      1.261475    -0.000330    -0.000049     1.261426
	  149 R(11,Y)         =     -1.124987     0.000013    -0.000054    -1.125041
	  150 R(11,Z)         =     -0.525570    -0.000068     0.000180    -0.525390
	  151 R(12,X)         =      0.056408    -0.000186    -0.000243     0.056164
	  152 R(12,Y)         =     -0.624931    -0.000009     0.000145    -0.624786
	  153 R(12,Z)         =     -0.045118    -0.000813    -0.000789    -0.045906
	  154 R(13,X)         =      3.811871    -0.001136    -0.000748     3.811123
	  155 R(13,Y)         =     -1.071954    -0.000327    -0.000384    -1.072337
	  156 R(13,Z)         =     -1.330461     0.000013     0.000017    -1.330444
	  157 R(14,X)         =      5.107863    -0.002902    -0.002281     5.105582
	  158 R(14,Y)         =      0.198344     0.001003     0.000921     0.199265
	  159 R(14,Z)         =     -1.350446     0.001007     0.000695    -1.349751
	  160 R(15,X)         =     -3.094828     0.001185     0.001009    -3.093819
	  161 R(15,Y)         =     -1.999253    -0.000066    -0.000067    -1.999321
	  162 R(15,Z)         =      0.923522     0.001234     0.002003     0.925525
	  163 R(16,X)         =     -1.481557     0.000628     0.000662    -1.480896
	  164 R(16,Y)         =      2.405762    -0.000562    -0.000562     2.405200
	  165 R(16,Z)         =      1.198491     0.001092     0.001839     1.200329
	  166 R(17,X)         =      3.034860     0.002533     0.001995     3.036855
	  167 R(17,Y)         =      1.789579    -0.001080    -0.000905     1.788673
	  168 R(17,Z)         =     -0.647295    -0.000040     0.000403    -0.646892
	  169 R(18,X)         =      0.906239     0.000554     0.000449     0.906688
	  170 R(18,Y)         =      2.641289     0.000119     0.000090     2.641379
	  171 R(18,Z)         =      0.244663    -0.000022    -0.000139     0.244524
	  172 R(19,X)         =     -0.840204     0.000618     0.000438    -0.839766
	  173 R(19,Y)         =     -2.500939    -0.000064     0.000050    -2.500888
	  174 R(19,Z)         =      0.082436     0.000619     0.000541     0.082977
	  175 R(20,X)         =      1.360432    -0.000137    -0.000075     1.360357
	  176 R(20,Y)         =     -2.189098     0.000010    -0.000040    -2.189138
	  177 R(20,Z)         =     -0.726037    -0.000050    -0.000009    -0.726046
	  178 R(21,X)         =      6.036118    -0.003244    -0.002432     6.033686
	  179 R(21,Y)         =     -0.304312     0.000812     0.000635    -0.303677
	  180 R(21,Z)         =     -1.068210     0.001161     0.000842    -1.067368
	  181 R(22,X)         =      5.205455    -0.002106    -0.001428     5.204026
	  182 R(22,Y)         =      0.668695     0.000173    -0.000069     0.668626
	  183 R(22,Z)         =     -2.330015     0.000480     0.000271    -2.329744
	  184 R(23,X)         =      4.927329    -0.003809    -0.003054     4.924275
	  185 R(23,Y)         =      0.955809     0.002188     0.001861     0.957670
	  186 R(23,Z)         =     -0.585434     0.000234     0.000007    -0.585428
	 ---------------------------------------------------------------------------
	Successfully symmetrized geometry.

  ==> Convergence Check <==

  Measures of convergence in internal coordinates in au.
  Criteria marked as inactive (o), active & met (*), and active & unmet ( ).
  ---------------------------------------------------------------------------------------------
   Step     Total Energy     Delta E     MAX Force     RMS Force      MAX Disp      RMS Disp   
  ---------------------------------------------------------------------------------------------
    Convergence Criteria             o    2.50e-03 *    1.70e-03 *    1.00e-02 *    6.70e-03 *
  ---------------------------------------------------------------------------------------------
      2   -1188.12069738   -4.70e-05 o    4.62e-04 *    1.02e-04 *    5.77e-03 *    1.40e-03 *  ~
  ---------------------------------------------------------------------------------------------


  **** Optimization is complete! (in 2 steps) ****

  ==> Optimization Summary <==

  Measures of convergence in internal coordinates in au.
  --------------------------------------------------------------------------------------------------------------- ~
   Step         Total Energy             Delta E       MAX Force       RMS Force        MAX Disp        RMS Disp  ~
  --------------------------------------------------------------------------------------------------------------- ~
      1   -1188.120650412160  -1188.120650412160      0.00083219      0.00019828      0.02200818      0.00411294  ~
      2   -1188.120697379770     -0.000046967610      0.00046233      0.00010213      0.00577075      0.00140058  ~
  --------------------------------------------------------------------------------------------------------------- ~

	Writing optimization data to binary file.
	Final energy is  -1188.1206973797705
	Final (previous) structure:
	Cartesian Geometry (in Angstrom)
	    N    -1.0043256657  -1.5069780942   0.1872574321
	    C    -2.2576274854  -1.1774963598   0.6326757163
	    C    -2.5550452121   0.3388586015   0.6640434537
	    F    -3.1463415964   0.6194097143  -0.5446794777
	    F    -3.4345603807   0.6013805373   1.6355765938
	    C    -1.3329786899   1.2864595669   0.7628496931
	    C    -0.0752724224   0.7461215649   0.2359775614
	    C     1.0228302344   1.5844642704   0.0243637729
	    C     2.2231753969   1.0968824775  -0.4624261723
	    C     2.3511795937  -0.2728452404  -0.7431879470
	    C     1.2614751157  -1.1249870913  -0.5255704147
	    C     0.0564076539  -0.6249307964  -0.0451175841
	    S     3.8118713971  -1.0719536355  -1.3304605957
	    C     5.1078625369   0.1983435391  -1.3504464734
	    O    -3.0948278883  -1.9992532298   0.9235220018
	    O    -1.4815572801   2.4057616451   1.1984905815
	    H     3.0348601759   1.7895786917  -0.6472954859
	    H     0.9062394070   2.6412891538   0.2446631526
	    H    -0.8402041259  -2.5009386310   0.0824361325
	    H     1.3604315821  -2.1890984265  -0.7260370534
	    H     6.0361183442  -0.3043121828  -1.0682097157
	    H     5.2054546174   0.6686946129  -2.3300152142
	    H     4.9273291050   0.9558087972  -0.5854341527
	Saving final (previous) structure.
			--------------------------
			 OPTKING Finished Execution 
			--------------------------

    Final optimized geometry and variables:
    Molecular point group: c1
    Full point group: C1

    Geometry (in Angstrom), charge = 0, multiplicity = 1:

    N           -1.004325669602    -1.506978100077     0.187257432870
    C           -2.257627494285    -1.177496364460     0.632675718832
    C           -2.555045222114     0.338858602798     0.664043456312
    F           -3.146341608749     0.619409716689    -0.544679479821
    F           -3.434560394158     0.601380539622     1.635576600275
    C           -1.332978695181     1.286459571929     0.762849696095
    C           -0.075272422718     0.746121567849     0.235977562340
    C            1.022830238444     1.584464276635     0.024363773014
    C            2.223175405642     1.096882481768    -0.462426174145
    C            2.351179602962    -0.272845241471    -0.743187949950
    C            1.261475120612    -1.124987095694    -0.525570416760
    C            0.056407654144    -0.624930798869    -0.045117584228
    S            3.811871412131    -1.071953639705    -1.330460600895
    C            5.107862556944     0.198343539838    -1.350446478659
    O           -3.094827900499    -1.999253237627     0.923522005451
    O           -1.481557285929     2.405761654590     1.198490586188
    H            3.034860187798     1.789578698752    -0.647295488457
    H            0.906239410550     2.641289164139     0.244663153551
    H           -0.840204129170    -2.500938640869     0.082436132811
    H            1.360431587474    -2.189098435070    -0.726037056257
    H            6.036118367915    -0.304312184044    -1.068209719864
    H            5.205454637846     0.668694615500    -2.330015223336
    H            4.927329124390     0.955808800972    -0.585434155033

	Removing binary optimization data file.
	Cleaning optimization helper files.

    Psi4 stopped on: Tuesday, 22 June 2021 07:11AM
    Psi4 wall time for execution: 0:29:13.86

*** Psi4 exiting successfully. Buy a developer a beer!
