
    -----------------------------------------------------------------------
          Psi4: An Open-Source Ab Initio Electronic Structure Package
                               Psi4 1.3.2 release

                         Git: Rev {HEAD} ecbda83 


    R. M. Parrish, L. A. Burns, D. G. A. Smith, A. C. Simmonett,
    A. E. DePrince III, E. G. Hohenstein, U. Bozkaya, A. Yu. Sokolov,
    R. Di Remigio, R. M. Richard, J. F. Gonthier, A. M. James,
    H. R. McAlexander, A. Kumar, M. Saitow, X. Wang, B. P. Pritchard,
    P. Verma, H. F. Schaefer III, K. Patkowski, R. A. King, E. F. Valeev,
    F. A. Evangelista, J. M. Turney, T. D. Crawford, and C. D. Sherrill,
    J. Chem. Theory Comput. 13(7) pp 3185--3197 (2017).
    (doi: 10.1021/acs.jctc.7b00174)


                         Additional Contributions by
    P. Kraus, H. Kruse, M. H. Lechner, M. C. Schieber, R. A. Shaw,
    A. Alenaizan, R. Galvelis, Z. L. Glick, S. Lehtola, and J. P. Misiewicz

    -----------------------------------------------------------------------


    Psi4 started on: Tuesday, 22 June 2021 01:41AM

    Process ID: 19531
    Host:       cpu-spot-dy-c5n2xlarge-1
    PSIDATADIR: /fsx/users/francis/anaconda3/envs/poltype-dev/share/psi4
    Memory:     500.0 MiB
    Threads:    1
    
  ==> Input File <==

--------------------------------------------------------------------------
molecule { 
0 1
 N   -0.590543   -1.264268   -0.334797
 C   -1.958642   -1.203906   -0.292747
 C   -2.572341    0.172808    0.126974
 F   -3.372332    0.600988   -0.908520
 F   -3.371483   -0.048302    1.226247
 C   -1.574366    1.330094    0.477558
 C   -0.125507    1.044037    0.365232
 C    0.819386    2.048852    0.666352
 C    2.193163    1.799775    0.561569
 C    2.668042    0.528999    0.142587
 C    1.719770   -0.482120   -0.141389
 C    0.338228   -0.237885   -0.039239
 S    4.403912    0.160201    0.015599
 C    4.603289   -0.979285   -1.383924
 O   -2.629106   -2.186075   -0.576762
 O   -1.993253    2.429840    0.826170
 H    2.885087    2.605594    0.806983
 H    0.451783    3.026050    0.980777
 H   -0.257592   -2.176484   -0.615566
 H    2.058660   -1.479793   -0.417540
 H    4.112150   -1.931195   -1.165028
 H    4.158846   -0.531288   -2.278199
 H    5.670884   -1.148689   -1.553299
}
set optking { 
  frozen_dihedral = ("
    11 10 13 14
    9 10 13 14
    21 14 13 10
  ")
}
set {
  geom_maxiter 400
  g_convergence GAU_LOOSE
  dynamic_level 1
}
memory 16GB
set_num_threads(8)
psi4_io.set_default_path("/scratch/Psi4-ligand")
for _ in range(1):
  try:
    set opt_coordinates both
    optimize('wb97x-d/6-31+G*')
    break
  except OptimizationConvergenceError:
    break
  else:
    try:
      set opt_coordinates cartesian
      optimize('wb97x-d/6-31+G*')
      break
    except OptimizationConvergenceError:
      pass
clean()
--------------------------------------------------------------------------

  Memory set to  14.901 GiB by Python driver.
  Threads set to 8 by Python driver.
gradient() will perform analytic gradient computation.

*** tstart() called on cpu-spot-dy-c5n2xlarge-1
*** at Tue Jun 22 01:41:22 2021

   => Loading Basis Set <=

    Name: 6-31+G*
    Role: ORBITAL
    Keyword: BASIS
    atoms 1             entry N          line   138 file /fsx/users/francis/anaconda3/envs/poltype-dev/share/psi4/basis/6-31pgs.gbs 
    atoms 2-3, 6-12, 14 entry C          line   119 file /fsx/users/francis/anaconda3/envs/poltype-dev/share/psi4/basis/6-31pgs.gbs 
    atoms 4-5           entry F          line   176 file /fsx/users/francis/anaconda3/envs/poltype-dev/share/psi4/basis/6-31pgs.gbs 
    atoms 13            entry S          line   344 file /fsx/users/francis/anaconda3/envs/poltype-dev/share/psi4/basis/6-31pgs.gbs 
    atoms 15-16         entry O          line   157 file /fsx/users/francis/anaconda3/envs/poltype-dev/share/psi4/basis/6-31pgs.gbs 
    atoms 17-23         entry H          line    46 file /fsx/users/francis/anaconda3/envs/poltype-dev/share/psi4/basis/6-31pgs.gbs 


         ---------------------------------------------------------
                                   SCF
               by Justin Turney, Rob Parrish, Andy Simmonett
                          and Daniel G. A. Smith
                              RKS Reference
                        8 Threads,  15258 MiB Core
         ---------------------------------------------------------

  ==> Geometry <==

    Molecular point group: c1
    Full point group: C1

    Geometry (in Angstrom), charge = 0, multiplicity = 1:

       Center              X                  Y                   Z               Mass       
    ------------   -----------------  -----------------  -----------------  -----------------
         N           -0.685343944347    -1.463535468842    -0.365069512354    14.003074004430
         C           -2.053442944347    -1.403173468842    -0.323019512354    12.000000000000
         C           -2.667141944347    -0.026459468842     0.096701487646    12.000000000000
         F           -3.467132944347     0.401720531158    -0.938792512354    18.998403162730
         F           -3.466283944347    -0.247569468842     1.195974487646    18.998403162730
         C           -1.669166944347     1.130826531158     0.447285487646    12.000000000000
         C           -0.220307944347     0.844769531158     0.334959487646    12.000000000000
         C            0.724585055653     1.849584531158     0.636079487646    12.000000000000
         C            2.098362055653     1.600507531158     0.531296487646    12.000000000000
         C            2.573241055653     0.329731531158     0.112314487646    12.000000000000
         C            1.624969055653    -0.681387468842    -0.171661512354    12.000000000000
         C            0.243427055653    -0.437152468842    -0.069511512354    12.000000000000
         S            4.309111055653    -0.039066468842    -0.014673512354    31.972071174400
         C            4.508488055653    -1.178552468842    -1.414196512354    12.000000000000
         O           -2.723906944347    -2.385342468842    -0.607034512354    15.994914619570
         O           -2.088053944347     2.230572531158     0.795897487646    15.994914619570
         H            2.790286055653     2.406326531158     0.776710487646     1.007825032230
         H            0.356982055653     2.826782531158     0.950504487646     1.007825032230
         H           -0.352392944347    -2.375751468842    -0.645838512354     1.007825032230
         H            1.963859055653    -1.679060468842    -0.447812512354     1.007825032230
         H            4.017349055653    -2.130462468842    -1.195300512354     1.007825032230
         H            4.064045055653    -0.730555468842    -2.308471512354     1.007825032230
         H            5.576083055653    -1.347956468842    -1.583571512354     1.007825032230

  Running in c1 symmetry.

  Rotational constants: A =      0.03475  B =      0.00855  C =      0.00721 [cm^-1]
  Rotational constants: A =   1041.84368  B =    256.34123  C =    216.20462 [MHz]
  Nuclear repulsion = 1177.756590876678274

  Charge       = 0
  Multiplicity = 1
  Electrons    = 124
  Nalpha       = 62
  Nbeta        = 62

  ==> Algorithm <==

  SCF Algorithm Type is DF.
  DIIS enabled.
  MOM disabled.
  Fractional occupation disabled.
  Guess Type is SAD.
  Energy threshold   = 1.00e-08
  Density threshold  = 1.00e-08
  Integral threshold = 0.00e+00

  ==> Primary Basis <==

  Basis Set: 6-31+G*
    Blend: 6-31+G*
    Number of shells: 144
    Number of basis function: 322
    Number of Cartesian functions: 322
    Spherical Harmonics?: false
    Max angular momentum: 2

  ==> DFT Potential <==

   => Composite Functional: WB97X-D <= 

    wB97X-D Hyb-GGA Exchange-Correlation Functional

    J.-D. Chai and M. Head-Gordon, Phys. Chem. Chem. Phys. 10, 6615 (2008)

    Deriv               =              1
    GGA                 =           TRUE
    Meta                =          FALSE

    Exchange Hybrid     =           TRUE
    MP2 Hybrid          =          FALSE

   => Exchange-Correlation Functionals <=

    1.0000   wB97D range-separated functional

   => Exact (HF) Exchange <=

    0.7780            HF,LR [omega = 0.2000]
    0.2220               HF 

   => Molecular Quadrature <=

    Radial Scheme          =       TREUTLER
    Pruning Scheme         =           FLAT
    Nuclear Scheme         =       TREUTLER

    BS radius alpha        =              1
    Pruning alpha          =              1
    Radial Points          =             75
    Spherical Points       =            302
    Total Points           =         520857
    Total Blocks           =           3876
    Max Points             =            256
    Max Functions          =            283

   => WB97X-D: Empirical Dispersion <=

    Chai and Head-Gordon Dispersion Correction
    Chai, J.-D.; Head-Gordon, M. (2010), J. Chem. Phys., 132: 6615-6620

        s6 =       1.000000

   => Loading Basis Set <=

    Name: (6-31+G* AUX)
    Role: JKFIT
    Keyword: DF_BASIS_SCF
    atoms 1             entry N          line   252 file /fsx/users/francis/anaconda3/envs/poltype-dev/share/psi4/basis/heavy-aug-cc-pvdz-jkfit.gbs 
    atoms 2-3, 6-12, 14 entry C          line   194 file /fsx/users/francis/anaconda3/envs/poltype-dev/share/psi4/basis/heavy-aug-cc-pvdz-jkfit.gbs 
    atoms 4-5           entry F          line   368 file /fsx/users/francis/anaconda3/envs/poltype-dev/share/psi4/basis/heavy-aug-cc-pvdz-jkfit.gbs 
    atoms 13            entry S          line   730 file /fsx/users/francis/anaconda3/envs/poltype-dev/share/psi4/basis/heavy-aug-cc-pvdz-jkfit.gbs 
    atoms 15-16         entry O          line   310 file /fsx/users/francis/anaconda3/envs/poltype-dev/share/psi4/basis/heavy-aug-cc-pvdz-jkfit.gbs 
    atoms 17-23         entry H          line   116 file /fsx/users/francis/anaconda3/envs/poltype-dev/share/psi4/basis/heavy-aug-cc-pvdz-jkfit.gbs 

  ==> Pre-Iterations <==

   -------------------------------------------------------
    Irrep   Nso     Nmo     Nalpha   Nbeta   Ndocc  Nsocc
   -------------------------------------------------------
     A        322     322       0       0       0       0
   -------------------------------------------------------
    Total     322     322      62      62      62       0
   -------------------------------------------------------

  ==> Integral Setup <==

  ==> DiskDFJK: Density-Fitted J/K Matrices <==

    J tasked:                  Yes
    K tasked:                  Yes
    wK tasked:                 Yes
    Omega:               2.000E-01
    OpenMP threads:              8
    Integrals threads:           8
    Memory [MiB]:             8427
    Algorithm:                Core
    Integral Cache:           NONE
    Schwarz Cutoff:          1E-12
    Fitting Condition:       1E-10

   => Auxiliary Basis Set <=

  Basis Set: (6-31+G* AUX)
    Blend: HEAVY-AUG-CC-PVDZ-JKFIT
    Number of shells: 523
    Number of basis function: 1840
    Number of Cartesian functions: 1840
    Spherical Harmonics?: false
    Max angular momentum: 3

  Cached 100.0% of DFT collocation blocks in 2.946 [GiB].

  Minimum eigenvalue in the overlap matrix is 5.2229359688E-07.
  Using Symmetric Orthogonalization.

  SCF Guess: Superposition of Atomic Densities via on-the-fly atomic UHF.

  ==> Iterations <==

                           Total Energy        Delta E     RMS |[F,P]|

   @DF-RKS iter SAD: -1187.20323675175223   -1.18720e+03   0.00000e+00 
   @DF-RKS iter   1: -1187.55588977649245   -3.52653e-01   3.35761e-03 DIIS
   @DF-RKS iter   2: -1187.57093693374668   -1.50472e-02   3.65080e-03 DIIS
   @DF-RKS iter   3: -1188.08404687132088   -5.13110e-01   7.96203e-04 DIIS
   @DF-RKS iter   4: -1188.10925157587735   -2.52047e-02   2.49580e-04 DIIS
   @DF-RKS iter   5: -1188.11236685640392   -3.11528e-03   7.08512e-05 DIIS
   @DF-RKS iter   6: -1188.11275081920985   -3.83963e-04   2.40899e-05 DIIS
   @DF-RKS iter   7: -1188.11281244743964   -6.16282e-05   9.95966e-06 DIIS
   @DF-RKS iter   8: -1188.11283021497525   -1.77675e-05   3.92383e-06 DIIS
   @DF-RKS iter   9: -1188.11283328663671   -3.07166e-06   2.29168e-06 DIIS
   @DF-RKS iter  10: -1188.11283369308035   -4.06444e-07   7.42351e-07 DIIS
   @DF-RKS iter  11: -1188.11283374920095   -5.61206e-08   3.17562e-07 DIIS
   @DF-RKS iter  12: -1188.11283375957146   -1.03705e-08   1.53245e-07 DIIS
   @DF-RKS iter  13: -1188.11283376230767   -2.73621e-09   5.64494e-08 DIIS
   @DF-RKS iter  14: -1188.11283376262145   -3.13776e-10   2.67507e-08 DIIS
   @DF-RKS iter  15: -1188.11283376269694   -7.54881e-11   1.18976e-08 DIIS
   @DF-RKS iter  16: -1188.11283376270831   -1.13687e-11   6.93341e-09 DIIS
  Energy and wave function converged.


  ==> Post-Iterations <==

    Orbital Energies [Eh]
    ---------------------

    Doubly Occupied:                                                      

       1A    -89.081202     2A    -24.875411     3A    -24.874762  
       4A    -19.307849     5A    -19.295727     6A    -14.544813  
       7A    -10.512457     8A    -10.460488     9A    -10.437738  
      10A    -10.412954    11A    -10.392172    12A    -10.358822  
      13A    -10.356274    14A    -10.355618    15A    -10.355463  
      16A    -10.347298    17A     -8.098480    18A     -6.049290  
      19A     -6.044761    20A     -6.038492    21A     -1.383505  
      22A     -1.327129    23A     -1.191055    24A     -1.177263  
      25A     -1.094135    26A     -0.999833    27A     -0.940557  
      28A     -0.903680    29A     -0.889310    30A     -0.868469  
      31A     -0.796977    32A     -0.768001    33A     -0.753378  
      34A     -0.741995    35A     -0.695077    36A     -0.679730  
      37A     -0.667738    38A     -0.646284    39A     -0.628533  
      40A     -0.591317    41A     -0.580507    42A     -0.566981  
      43A     -0.564547    44A     -0.561820    45A     -0.553886  
      46A     -0.551929    47A     -0.546685    48A     -0.535603  
      49A     -0.530998    50A     -0.518064    51A     -0.508910  
      52A     -0.503950    53A     -0.490788    54A     -0.483309  
      55A     -0.473646    56A     -0.442494    57A     -0.423527  
      58A     -0.397274    59A     -0.388124    60A     -0.369938  
      61A     -0.342407    62A     -0.321232  

    Virtual:                                                              

      63A     -0.050457    64A      0.008856    65A      0.035877  
      66A      0.046992    67A      0.057288    68A      0.061051  
      69A      0.063655    70A      0.075462    71A      0.078363  
      72A      0.089166    73A      0.091423    74A      0.098243  
      75A      0.105234    76A      0.111077    77A      0.112793  
      78A      0.115692    79A      0.121191    80A      0.129434  
      81A      0.134423    82A      0.137493    83A      0.141895  
      84A      0.146326    85A      0.153502    86A      0.160540  
      87A      0.164185    88A      0.172862    89A      0.174417  
      90A      0.177541    91A      0.186157    92A      0.187984  
      93A      0.192811    94A      0.195165    95A      0.202937  
      96A      0.207865    97A      0.212842    98A      0.217694  
      99A      0.226111   100A      0.228622   101A      0.235055  
     102A      0.238414   103A      0.241184   104A      0.244138  
     105A      0.248461   106A      0.250651   107A      0.251564  
     108A      0.254498   109A      0.263008   110A      0.264469  
     111A      0.274333   112A      0.279233   113A      0.283549  
     114A      0.289561   115A      0.296813   116A      0.299251  
     117A      0.304619   118A      0.311474   119A      0.315597  
     120A      0.316654   121A      0.319963   122A      0.328999  
     123A      0.333067   124A      0.345400   125A      0.351368  
     126A      0.362641   127A      0.366068   128A      0.372208  
     129A      0.380659   130A      0.383430   131A      0.386915  
     132A      0.390607   133A      0.396746   134A      0.398575  
     135A      0.407537   136A      0.412853   137A      0.422779  
     138A      0.430604   139A      0.442380   140A      0.444130  
     141A      0.457051   142A      0.465289   143A      0.477642  
     144A      0.485470   145A      0.499197   146A      0.509853  
     147A      0.527295   148A      0.528941   149A      0.535959  
     150A      0.546317   151A      0.565670   152A      0.571465  
     153A      0.588425   154A      0.599556   155A      0.602634  
     156A      0.638449   157A      0.660724   158A      0.672627  
     159A      0.683420   160A      0.689478   161A      0.721616  
     162A      0.733465   163A      0.745401   164A      0.750716  
     165A      0.760084   166A      0.768736   167A      0.784660  
     168A      0.797288   169A      0.812003   170A      0.820917  
     171A      0.826884   172A      0.849181   173A      0.865888  
     174A      0.875175   175A      0.879697   176A      0.893552  
     177A      0.906087   178A      0.911851   179A      0.929145  
     180A      0.931645   181A      0.961393   182A      0.968624  
     183A      0.978196   184A      0.984541   185A      0.997695  
     186A      1.020555   187A      1.042913   188A      1.056599  
     189A      1.075569   190A      1.083005   191A      1.086361  
     192A      1.098819   193A      1.111167   194A      1.148945  
     195A      1.155627   196A      1.168128   197A      1.195656  
     198A      1.199867   199A      1.210989   200A      1.214906  
     201A      1.223018   202A      1.232197   203A      1.268085  
     204A      1.282609   205A      1.296403   206A      1.317120  
     207A      1.321345   208A      1.334542   209A      1.338811  
     210A      1.379822   211A      1.394490   212A      1.404557  
     213A      1.409889   214A      1.416164   215A      1.423545  
     216A      1.451134   217A      1.454829   218A      1.460302  
     219A      1.464735   220A      1.475007   221A      1.498980  
     222A      1.511411   223A      1.524753   224A      1.530082  
     225A      1.554119   226A      1.591016   227A      1.617564  
     228A      1.647787   229A      1.661890   230A      1.667686  
     231A      1.706335   232A      1.747767   233A      1.750120  
     234A      1.757993   235A      1.760126   236A      1.767300  
     237A      1.770952   238A      1.779309   239A      1.790541  
     240A      1.819136   241A      1.836939   242A      1.860848  
     243A      1.872258   244A      1.894755   245A      1.901284  
     246A      1.905940   247A      1.917531   248A      1.944198  
     249A      1.961566   250A      1.964865   251A      1.969852  
     252A      2.003961   253A      2.036083   254A      2.044963  
     255A      2.056300   256A      2.057604   257A      2.079978  
     258A      2.088727   259A      2.097309   260A      2.110506  
     261A      2.143801   262A      2.150568   263A      2.165434  
     264A      2.196950   265A      2.204826   266A      2.211209  
     267A      2.247470   268A      2.251984   269A      2.258157  
     270A      2.267006   271A      2.301263   272A      2.308363  
     273A      2.320934   274A      2.331706   275A      2.350495  
     276A      2.365827   277A      2.378928   278A      2.400991  
     279A      2.462882   280A      2.463949   281A      2.509947  
     282A      2.515344   283A      2.567859   284A      2.624589  
     285A      2.654539   286A      2.671302   287A      2.704669  
     288A      2.719873   289A      2.734077   290A      2.767620  
     291A      2.769867   292A      2.820081   293A      2.827480  
     294A      2.846692   295A      2.895649   296A      2.946258  
     297A      2.962860   298A      3.026963   299A      3.121033  
     300A      3.152380   301A      3.208984   302A      3.232189  
     303A      3.335993   304A      3.376187   305A      3.461484  
     306A      3.485573   307A      4.032006   308A      4.276574  
     309A      4.306109   310A      4.327396   311A      4.362693  
     312A      4.371868   313A      4.408775   314A      4.467262  
     315A      4.485025   316A      4.519415   317A      4.578821  
     318A      4.777147   319A      4.832907   320A      5.114773  
     321A      5.695516   322A      7.140476  

    Final Occupation by Irrep:
              A 
    DOCC [    62 ]

  @DF-RKS Final Energy: -1188.11283376270831

   => Energetics <=

    Nuclear Repulsion Energy =           1177.7565908766782741
    One-Electron Energy =               -3969.4752323881493794
    Two-Electron Energy =                1693.0592174609278118
    DFT Exchange-Correlation Energy =     -89.4398051331166926
    Empirical Dispersion Energy =          -0.0136045790483652
    VV10 Nonlocal Energy =                  0.0000000000000000
    Total Energy =                      -1188.1128337627085330

Computation Completed


Properties will be evaluated at   0.000000,   0.000000,   0.000000 [a0]

Properties computed using the SCF density matrix

  Nuclear Dipole Moment: [e a0]
     X:    23.8979      Y:    -2.9841      Z:    -4.4163

  Electronic Dipole Moment: [e a0]
     X:   -21.0583      Y:     2.3581      Z:     3.7726

  Dipole Moment: [e a0]
     X:     2.8395      Y:    -0.6261      Z:    -0.6437     Total:     2.9781

  Dipole Moment: [D]
     X:     7.2174      Y:    -1.5913      Z:    -1.6362     Total:     7.5697


*** tstop() called on cpu-spot-dy-c5n2xlarge-1 at Tue Jun 22 01:42:39 2021
Module time:
	user time   =     569.34 seconds =       9.49 minutes
	system time =      10.35 seconds =       0.17 minutes
	total time  =         77 seconds =       1.28 minutes
Total time:
	user time   =     569.34 seconds =       9.49 minutes
	system time =      10.35 seconds =       0.17 minutes
	total time  =         77 seconds =       1.28 minutes

*** tstart() called on cpu-spot-dy-c5n2xlarge-1
*** at Tue Jun 22 01:42:39 2021


         ------------------------------------------------------------
                                   SCF GRAD                          
                          Rob Parrish, Justin Turney,                
                       Andy Simmonett, and Alex Sokolov              
         ------------------------------------------------------------

  ==> Geometry <==

    Molecular point group: c1
    Full point group: C1

    Geometry (in Angstrom), charge = 0, multiplicity = 1:

       Center              X                  Y                   Z               Mass       
    ------------   -----------------  -----------------  -----------------  -----------------
         N           -0.685343944347    -1.463535468842    -0.365069512354    14.003074004430
         C           -2.053442944347    -1.403173468842    -0.323019512354    12.000000000000
         C           -2.667141944347    -0.026459468842     0.096701487646    12.000000000000
         F           -3.467132944347     0.401720531158    -0.938792512354    18.998403162730
         F           -3.466283944347    -0.247569468842     1.195974487646    18.998403162730
         C           -1.669166944347     1.130826531158     0.447285487646    12.000000000000
         C           -0.220307944347     0.844769531158     0.334959487646    12.000000000000
         C            0.724585055653     1.849584531158     0.636079487646    12.000000000000
         C            2.098362055653     1.600507531158     0.531296487646    12.000000000000
         C            2.573241055653     0.329731531158     0.112314487646    12.000000000000
         C            1.624969055653    -0.681387468842    -0.171661512354    12.000000000000
         C            0.243427055653    -0.437152468842    -0.069511512354    12.000000000000
         S            4.309111055653    -0.039066468842    -0.014673512354    31.972071174400
         C            4.508488055653    -1.178552468842    -1.414196512354    12.000000000000
         O           -2.723906944347    -2.385342468842    -0.607034512354    15.994914619570
         O           -2.088053944347     2.230572531158     0.795897487646    15.994914619570
         H            2.790286055653     2.406326531158     0.776710487646     1.007825032230
         H            0.356982055653     2.826782531158     0.950504487646     1.007825032230
         H           -0.352392944347    -2.375751468842    -0.645838512354     1.007825032230
         H            1.963859055653    -1.679060468842    -0.447812512354     1.007825032230
         H            4.017349055653    -2.130462468842    -1.195300512354     1.007825032230
         H            4.064045055653    -0.730555468842    -2.308471512354     1.007825032230
         H            5.576083055653    -1.347956468842    -1.583571512354     1.007825032230

  Nuclear repulsion = 1177.756590876678274

  ==> Basis Set <==

  Basis Set: 6-31+G*
    Blend: 6-31+G*
    Number of shells: 144
    Number of basis function: 322
    Number of Cartesian functions: 322
    Spherical Harmonics?: false
    Max angular momentum: 2

  ==> DFJKGrad: Density-Fitted SCF Gradients <==

    Gradient:                    1
    J tasked:                  Yes
    K tasked:                  Yes
    wK tasked:                 Yes
    Omega:               2.000E-01
    OpenMP threads:              8
    Integrals threads:           8
    Memory [MiB]:            11444
    Schwarz Cutoff:          0E+00
    Fitting Condition:       1E-10

   => Auxiliary Basis Set <=

  Basis Set: (6-31+G* AUX)
    Blend: HEAVY-AUG-CC-PVDZ-JKFIT
    Number of shells: 523
    Number of basis function: 1840
    Number of Cartesian functions: 1840
    Spherical Harmonics?: false
    Max angular momentum: 3

  ==> DFT Potential <==

   => Composite Functional: WB97X-D <= 

    wB97X-D Hyb-GGA Exchange-Correlation Functional

    J.-D. Chai and M. Head-Gordon, Phys. Chem. Chem. Phys. 10, 6615 (2008)

    Deriv               =              1
    GGA                 =           TRUE
    Meta                =          FALSE

    Exchange Hybrid     =           TRUE
    MP2 Hybrid          =          FALSE

   => Exchange-Correlation Functionals <=

    1.0000   wB97D range-separated functional

   => Exact (HF) Exchange <=

    0.7780            HF,LR [omega = 0.2000]
    0.2220               HF 

   => Molecular Quadrature <=

    Radial Scheme          =       TREUTLER
    Pruning Scheme         =           FLAT
    Nuclear Scheme         =       TREUTLER

    BS radius alpha        =              1
    Pruning alpha          =              1
    Radial Points          =             75
    Spherical Points       =            302
    Total Points           =         520857
    Total Blocks           =           3876
    Max Points             =            256
    Max Functions          =            283


  -Total Gradient:
     Atom            X                  Y                   Z
    ------   -----------------  -----------------  -----------------
       1       -0.007036456786    -0.011949548584    -0.003760554047
       2        0.005756278776     0.012701878634     0.003735171016
       3        0.013654509297    -0.001066281916    -0.001240905145
       4       -0.010276138535     0.005866539150    -0.013900307517
       5       -0.010488081216    -0.002988131775     0.015407386704
       6       -0.002896616449    -0.022507743914    -0.006415688388
       7       -0.003384258226     0.008026211883     0.002530419464
       8       -0.006169080078     0.012846872865     0.002455791123
       9        0.001500000708     0.001856524657     0.000081547863
      10        0.020000670545     0.010095651014     0.007316762142
      11        0.004731917547    -0.005957432685    -0.002192711779
      12        0.001537686660    -0.006593818248    -0.000858039373
      13       -0.008130111415    -0.014098811857    -0.010417006487
      14        0.016600079061    -0.000071789122     0.001483866604
      15       -0.004229812932    -0.022140819031    -0.006585971766
      16       -0.001369175979     0.029004434547     0.008909369722
      17       -0.000351829603     0.003967264641     0.002389042026
      18       -0.001619913630     0.003369274817     0.001290536252
      19       -0.004282523570     0.000751178075     0.000261468757
      20        0.001488106737    -0.002227748853     0.000211745388
      21       -0.003302133681     0.001696617204     0.002847784223
      22       -0.001641407644     0.002211589345     0.000767257599
      23        0.001313074658    -0.002900254516    -0.004411146590


*** tstop() called on cpu-spot-dy-c5n2xlarge-1 at Tue Jun 22 01:43:02 2021
Module time:
	user time   =     150.74 seconds =       2.51 minutes
	system time =       3.69 seconds =       0.06 minutes
	total time  =         23 seconds =       0.38 minutes
Total time:
	user time   =     720.09 seconds =      12.00 minutes
	system time =      14.04 seconds =       0.23 minutes
	total time  =        100 seconds =       1.67 minutes

			-----------------------------------------
			 OPTKING 2.0: for geometry optimizations 
			  - R.A. King,  Bethel University        
			-----------------------------------------
	At level 1: Red. Int., RFO, no backsteps, dynamic trust

	Internal coordinates to be generated automatically.
	Detected frag 1 with atoms:  1 2 3 4 5 6 7 8 9 10 11 12 13 14 15 16 17 18 19 20
	 21 22 23
	---Fragment 1 Bond Connectivity---
	 1 : 2 12 19
	 2 : 1 3 15
	 3 : 2 4 5 6
	 4 : 3
	 5 : 3
	 6 : 3 7 16
	 7 : 6 8 12
	 8 : 7 9 18
	 9 : 8 10 17
	 10 : 9 11 13
	 11 : 10 12 20
	 12 : 1 7 11
	 13 : 10 14
	 14 : 13 21 22 23
	 15 : 2
	 16 : 6
	 17 : 9
	 18 : 8
	 19 : 1
	 20 : 11
	 21 : 14
	 22 : 14
	 23 : 14

	Assuming in current code that numbering for constraints corresponds to unified fragment.
	Frozen dihedral atom list: 
	    11    10    13    14
	     9    10    13    14
	    21    14    13    10
	---Fragment 1 Geometry and Gradient---
	 N          -1.2951123566       -2.7656812110       -0.6898813951
	 C          -3.8804447791       -2.6516135626       -0.6104184115
	 C          -5.0401678125       -0.0500011495        0.1827393276
	 F          -6.5519317054        0.7591417829       -1.7740607370
	 F          -6.5503273279       -0.4678384931        2.2600642347
	 C          -3.1542683825        2.1369524393        0.8452470715
	 C          -0.4163216781        1.5963830530        0.6329816948
	 C           1.3692673098        3.4952082098        1.2020160257
	 C           3.9653295972        3.0245208956        1.0040048531
	 C           4.8627208500        0.6231022888        0.2122436216
	 C           3.0707464775       -1.2876357014       -0.3243932446
	 C           0.4600104667       -0.8260984412       -0.1313577209
	 S           8.1430397394       -0.0738249268       -0.0277289196
	 C           8.5198076651       -2.2271413906       -2.6724440959
	 O          -5.1474381160       -4.5076439815       -1.1471289770
	 O          -3.9458500900        4.2151711869        1.5040282756
	 H           5.2728764569        4.5472981123        1.4677701004
	 H           0.6745983169        5.3418448001        1.7961931627
	 H          -0.6659261534       -4.4895196183       -1.2204579096
	 H           3.7111557642       -3.1729644342       -0.8462430039
	 H           7.5916894656       -4.0259905867       -2.2587906060
	 H           7.6799321167       -1.3805497556       -4.3623789268
	 H          10.5372698280       -2.5472685551       -2.9925164584
	            -0.0070364568       -0.0119495486       -0.0037605540
	             0.0057562788        0.0127018786        0.0037351710
	             0.0136545093       -0.0010662819       -0.0012409051
	            -0.0102761385        0.0058665392       -0.0139003075
	            -0.0104880812       -0.0029881318        0.0154073867
	            -0.0028966164       -0.0225077439       -0.0064156884
	            -0.0033842582        0.0080262119        0.0025304195
	            -0.0061690801        0.0128468729        0.0024557911
	             0.0015000007        0.0018565247        0.0000815479
	             0.0200006705        0.0100956510        0.0073167621
	             0.0047319175       -0.0059574327       -0.0021927118
	             0.0015376867       -0.0065938182       -0.0008580394
	            -0.0081301114       -0.0140988119       -0.0104170065
	             0.0166000791       -0.0000717891        0.0014838666
	            -0.0042298129       -0.0221408190       -0.0065859718
	            -0.0013691760        0.0290044345        0.0089093697
	            -0.0003518296        0.0039672646        0.0023890420
	            -0.0016199136        0.0033692748        0.0012905363
	            -0.0042825236        0.0007511781        0.0002614688
	             0.0014881067       -0.0022277489        0.0002117454
	            -0.0033021337        0.0016966172        0.0028477842
	            -0.0016414076        0.0022115893        0.0007672576
	             0.0013130747       -0.0029002545       -0.0044111466

	Previous optimization step data not found.  Starting new optimization.

	---Fragment 1 Intrafragment Coordinates---
	 - Coordinate -           - BOHR/RAD -       - ANG/DEG -
	 R(1,2)           =         2.589067	       1.370075
	 R(1,12)          =         2.674768	       1.415426
	 R(1,19)          =         1.910237	       1.010854
	 R(2,3)           =         2.956762	       1.564651
	 R(2,15)          =         2.310450	       1.222637
	 R(3,4)           =         2.601770	       1.376798
	 R(3,5)           =         2.602009	       1.376924
	 R(3,6)           =         2.962819	       1.567857
	 R(6,7)           =         2.798861	       1.481094
	 R(6,16)          =         2.319394	       1.227370
	 R(7,8)           =         2.667895	       1.411789
	 R(7,12)          =         2.687115	       1.421960
	 R(8,9)           =         2.645807	       1.400101
	 R(8,18)          =         2.060504	       1.090372
	 R(9,10)          =         2.683097	       1.419834
	 R(9,17)          =         2.060002	       1.090106
	 R(10,11)         =         2.673962	       1.415000
	 R(10,13)         =         3.362110	       1.779152
	 R(11,12)         =         2.658237	       1.406678
	 R(11,20)         =         2.058377	       1.089246
	 R(13,14)         =         3.431216	       1.815721
	 R(14,21)         =         2.066004	       1.093282
	 R(14,22)         =         2.068330	       1.094513
	 R(14,23)         =         2.067627	       1.094141
	 B(1,2,3)         =         2.024903	     116.018424
	 B(1,2,15)        =         2.100250	     120.335486
	 B(1,12,7)        =         2.093388	     119.942290
	 B(1,12,11)       =         2.098309	     120.224261
	 B(2,1,12)        =         2.235561	     128.088236
	 B(2,1,19)        =         1.957550	     112.159359
	 B(2,3,4)         =         1.875272	     107.445171
	 B(2,3,5)         =         1.876021	     107.488099
	 B(2,3,6)         =         2.048560	     117.373815
	 B(3,2,15)        =         2.158025	     123.645716
	 B(3,6,7)         =         2.052340	     117.590432
	 B(3,6,16)        =         2.103256	     120.507707
	 B(4,3,5)         =         1.889308	     108.249373
	 B(4,3,6)         =         1.884382	     107.967108
	 B(5,3,6)         =         1.885400	     108.025454
	 B(6,7,8)         =         2.095645	     120.071618
	 B(6,7,12)        =         2.111473	     120.978512
	 B(7,6,16)        =         2.127579	     121.901287
	 B(7,8,9)         =         2.110783	     120.938983
	 B(7,8,18)        =         2.064310	     118.276228
	 B(7,12,11)       =         2.091486	     119.833307
	 B(8,7,12)        =         2.076059	     118.949414
	 B(8,9,10)        =         2.105377	     120.629221
	 B(8,9,17)        =         2.065128	     118.323113
	 B(9,8,18)        =         2.108089	     120.784630
	 B(9,10,11)       =         2.065346	     118.335589
	 B(9,10,13)       =         2.132837	     122.202538
	 B(10,9,17)       =         2.112677	     121.047485
	 B(10,11,12)      =         2.117109	     121.301430
	 B(10,11,20)      =         2.090792	     119.793533
	 B(10,13,14)      =         1.867361	     106.991927
	 B(11,10,13)      =         2.084501	     119.433096
	 B(12,1,19)       =         2.090072	     119.752305
	 B(12,11,20)      =         2.074877	     118.881715
	 B(13,14,21)      =         1.920652	     110.045270
	 B(13,14,22)      =         1.905310	     109.166228
	 B(13,14,23)      =         1.900355	     108.882299
	 B(21,14,22)      =         1.915115	     109.728012
	 B(21,14,23)      =         1.911893	     109.543416
	 B(22,14,23)      =         1.910390	     109.457312
	 D(1,2,3,4)       =         2.108821	     120.826531
	 D(1,2,3,5)       =        -2.144438	    -122.867232
	 D(1,2,3,6)       =        -0.016834	      -0.964513
	 D(1,12,7,6)      =        -0.005420	      -0.310524
	 D(1,12,7,8)      =         3.131886	     179.443870
	 D(1,12,11,10)    =         3.136433	     179.704359
	 D(1,12,11,20)    =        -0.035889	      -2.056278
	 D(2,1,12,7)      =         0.005571	       0.319167
	 D(2,1,12,11)     =        -3.138418	    -179.818078
	 D(2,3,6,7)       =         0.016881	       0.967203
	 D(2,3,6,16)      =        -3.129436	    -179.303487
	 D(3,2,1,12)      =         0.006096	       0.349295
	 D(3,2,1,19)      =        -3.137539	    -179.767737
	 D(3,6,7,8)       =         3.139963	     179.906638
	 D(3,6,7,12)      =        -0.005964	      -0.341707
	 D(4,3,2,15)      =        -1.028892	     -58.951151
	 D(4,3,6,7)       =        -2.104057	    -120.553573
	 D(4,3,6,16)      =         1.032811	      59.175737
	 D(5,3,2,15)      =         1.001035	      57.355086
	 D(5,3,6,7)       =         2.139634	     122.591994
	 D(5,3,6,16)      =        -1.006683	     -57.678697
	 D(6,3,2,15)      =         3.128639	     179.257805
	 D(6,7,8,9)       =        -3.137430	    -179.761508
	 D(6,7,8,18)      =         0.001648	       0.094432
	 D(6,7,12,11)     =         3.138559	     179.826181
	 D(7,8,9,10)      =         0.005351	       0.306577
	 D(7,8,9,17)      =        -3.138917	    -179.846681
	 D(7,12,1,19)     =        -3.133843	    -179.555988
	 D(7,12,11,10)    =        -0.007553	      -0.432736
	 D(7,12,11,20)    =         3.103311	     177.806627
	 D(8,7,6,16)      =         0.003165	       0.181346
	 D(8,7,12,11)     =        -0.007320	      -0.419425
	 D(8,9,10,11)     =        -0.019811	      -1.135061
	 D(8,9,10,13)     =        -3.127130	    -179.171376
	 D(9,8,7,12)      =         0.008409	       0.481816
	 D(9,10,11,12)    =         0.020962	       1.201039
	 D(9,10,11,20)    =        -3.089625	    -177.022500
	*D(9,10,13,14)    =        -2.546504	    -145.903950
	 D(10,9,8,18)     =        -3.133664	    -179.545745
	*D(10,13,14,21)   =        -1.143541	     -65.520062
	 D(10,13,14,22)   =         0.959220	      54.959233
	 D(10,13,14,23)   =         3.043932	     174.404445
	 D(11,10,9,17)    =         3.124530	     179.022408
	*D(11,10,13,14)   =         0.629725	      36.080606
	 D(11,12,1,19)    =         0.005354	       0.306768
	 D(12,1,2,15)     =        -3.139239	    -179.865140
	 D(12,7,6,16)     =         3.140423	     179.933001
	 D(12,7,8,18)     =        -3.135698	    -179.662244
	 D(12,11,10,13)   =         3.129257	     179.293202
	 D(13,10,9,17)    =         0.017211	       0.986094
	 D(13,10,11,20)   =         0.018669	       1.069663
	 D(15,2,1,19)     =         0.000311	       0.017828
	 D(17,9,8,18)     =         0.005253	       0.300998

	Current energy   :     -1188.1128337627

	Generating empirical Hessian (Schlegel '84) for each fragment.
	Taking RFO optimization step.
	Going to follow RFO solution 1.
	Using RFO vector 1.
	Norm of target step-size    0.23305
	Projected energy change by RFO approximation:        -0.0144340995

	Back-transformation to cartesian coordinates...
	Successfully converged to displaced geometry.

	Back-transformation to cartesian coordinates to adjust frozen coordinates...
	Successfully converged to displaced geometry.

	--- Internal Coordinate Step in ANG or DEG, aJ/ANG or AJ/DEG ---
	 ---------------------------------------------------------------------------
	   Coordinate                Previous        Force       Change         New 
	   ----------                --------       ------       ------       ------
	    1 R(1,2)          =      1.370075    -0.008057    -0.000935     1.369140
	    2 R(1,12)         =      1.415426    -0.127286    -0.018704     1.396723
	    3 R(1,19)         =      1.010854     0.018018     0.002443     1.013296
	    4 R(2,3)          =      1.564651    -0.096853    -0.021348     1.543303
	    5 R(2,15)         =      1.222637    -0.178487    -0.011970     1.210667
	    6 R(3,4)          =      1.376798    -0.150695    -0.018889     1.357909
	    7 R(3,5)          =      1.376924    -0.155703    -0.019525     1.357398
	    8 R(3,6)          =      1.567857    -0.089675    -0.020081     1.547776
	    9 R(6,7)          =      1.481094    -0.070645    -0.012796     1.468298
	   10 R(6,16)         =      1.227370    -0.239029    -0.016378     1.210992
	   11 R(7,8)          =      1.411789    -0.099481    -0.014251     1.397539
	   12 R(7,12)         =      1.421960    -0.129491    -0.019682     1.402278
	   13 R(8,9)          =      1.400101    -0.136575    -0.018655     1.381446
	   14 R(8,18)         =      1.090372    -0.032661    -0.005776     1.084596
	   15 R(9,10)         =      1.419834    -0.144718    -0.021022     1.398811
	   16 R(9,17)         =      1.090106    -0.026469    -0.004677     1.085429
	   17 R(10,11)        =      1.415000    -0.115921    -0.016493     1.398506
	   18 R(10,13)        =      1.779152    -0.064683    -0.014141     1.765012
	   19 R(11,12)        =      1.406678    -0.128135    -0.017807     1.388871
	   20 R(11,20)        =      1.089246    -0.019979    -0.003521     1.085726
	   21 R(13,14)        =      1.815721    -0.001926    -0.000467     1.815254
	   22 R(14,21)        =      1.093282    -0.004991    -0.000891     1.092391
	   23 R(14,22)        =      1.094513    -0.007879    -0.001412     1.093101
	   24 R(14,23)        =      1.094141    -0.019389    -0.003470     1.090671
	   25 B(1,2,3)        =    116.018424    -0.000080    -0.103207   115.915217
	   26 B(1,2,15)       =    120.335486     0.000838     2.328611   122.664097
	   27 B(1,12,7)       =    119.942290     0.000246     0.495854   120.438144
	   28 B(1,12,11)      =    120.224261    -0.000358    -0.900559   119.323701
	   29 B(2,1,12)       =    128.088236    -0.000175    -0.616883   127.471353
	   30 B(2,1,19)       =    112.159359     0.000366     1.518034   113.677393
	   31 B(2,3,4)        =    107.445171    -0.000024    -0.148260   107.296911
	   32 B(2,3,5)        =    107.488099    -0.000024    -0.084780   107.403319
	   33 B(2,3,6)        =    117.373815     0.000057     0.436869   117.810683
	   34 B(3,2,15)       =    123.645716    -0.000758    -2.225396   121.420321
	   35 B(3,6,7)        =    117.590432    -0.000112    -0.260006   117.330426
	   36 B(3,6,16)       =    120.507707    -0.000739    -2.130554   118.377153
	   37 B(4,3,5)        =    108.249373    -0.000022    -0.250365   107.999009
	   38 B(4,3,6)        =    107.967108     0.000001    -0.014986   107.952122
	   39 B(5,3,6)        =    108.025454     0.000006     0.007106   108.032559
	   40 B(6,7,8)        =    120.071618    -0.000018     0.057528   120.129146
	   41 B(6,7,12)       =    120.978512     0.000062     0.046144   121.024655
	   42 B(7,6,16)       =    121.901287     0.000852     2.391129   124.292415
	   43 B(7,8,9)        =    120.938983     0.000090     0.275388   121.214371
	   44 B(7,8,18)       =    118.276228    -0.000016    -0.043389   118.232839
	   45 B(7,12,11)      =    119.833307     0.000112     0.401408   120.234715
	   46 B(8,7,12)       =    118.949414    -0.000044    -0.103236   118.846178
	   47 B(8,9,10)       =    120.629221    -0.000271    -0.841886   119.787335
	   48 B(8,9,17)       =    118.323113     0.000386     1.501684   119.824797
	   49 B(9,8,18)       =    120.784630    -0.000074    -0.239439   120.545191
	   50 B(9,10,11)      =    118.335589     0.000443     1.267899   119.603487
	   51 B(9,10,13)      =    122.202538    -0.001268    -3.606732   118.595806
	   52 B(10,9,17)      =    121.047485    -0.000115    -0.659980   120.387505
	   53 B(10,11,12)     =    121.301430    -0.000329    -0.997002   120.304428
	   54 B(10,11,20)     =    119.793533     0.000220     0.741921   120.535454
	   55 B(10,13,14)     =    106.991927    -0.001897    -5.381533   101.610394
	   56 B(11,10,13)     =    119.433096     0.000824     2.338103   121.771199
	   57 B(12,1,19)      =    119.752305    -0.000192    -0.901323   118.850982
	   58 B(12,11,20)     =    118.881715     0.000110     0.266475   119.148189
	   59 B(13,14,21)     =    110.045270     0.000556     2.574216   112.619486
	   60 B(13,14,22)     =    109.166228     0.000323     1.692268   110.858496
	   61 B(13,14,23)     =    108.882299    -0.000734    -3.574869   105.307431
	   62 B(21,14,22)     =    109.728012    -0.000204    -0.151916   109.576095
	   63 B(21,14,23)     =    109.543416     0.000029    -0.440954   109.102463
	   64 B(22,14,23)     =    109.457312     0.000026    -0.211787   109.245525
	   65 D(1,2,3,4)      =    120.826531     0.000005     0.128664   120.955196
	   66 D(1,2,3,5)      =   -122.867232    -0.000006    -0.279545  -123.146777
	   67 D(1,2,3,6)      =     -0.964513     0.000000    -0.034302    -0.998816
	   68 D(1,12,7,6)     =     -0.310524    -0.000003    -0.317219    -0.627742
	   69 D(1,12,7,8)     =    179.443870    -0.000001    -0.123753   179.320117
	   70 D(1,12,11,10)   =    179.704359     0.000001     0.150354   179.854713
	   71 D(1,12,11,20)   =     -2.056278     0.000005     0.661389    -1.394889
	   72 D(2,1,12,7)     =      0.319167     0.000002     0.168123     0.487290
	   73 D(2,1,12,11)    =   -179.818078    -0.000003    -0.367616  -180.185694
	   74 D(2,3,6,7)      =      0.967203    -0.000001    -0.105881     0.861322
	   75 D(2,3,6,16)     =   -179.303487     0.000001     0.191888  -179.111600
	   76 D(3,2,1,12)     =      0.349295    -0.000000     0.007114     0.356409
	   77 D(3,2,1,19)     =   -179.767737    -0.000001    -0.069824  -179.837561
	   78 D(3,6,7,8)      =    179.906638     0.000001     0.088283   179.994921
	   79 D(3,6,7,12)     =     -0.341707     0.000002     0.283822    -0.057884
	   80 D(4,3,2,15)     =    -58.951151     0.000005     0.120734   -58.830417
	   81 D(4,3,6,7)      =   -120.553573    -0.000003    -0.203213  -120.756786
	   82 D(4,3,6,16)     =     59.175737    -0.000001     0.094556    59.270292
	   83 D(5,3,2,15)     =     57.355086    -0.000007    -0.287475    57.067611
	   84 D(5,3,6,7)      =    122.591994     0.000002     0.095404   122.687398
	   85 D(5,3,6,16)     =    -57.678697     0.000005     0.393173   -57.285524
	   86 D(6,3,2,15)     =    179.257805    -0.000000    -0.042232   179.215572
	   87 D(6,7,8,9)      =   -179.761508     0.000005     0.472900  -179.288608
	   88 D(6,7,8,18)     =      0.094432    -0.000004    -0.380678    -0.286246
	   89 D(6,7,12,11)    =    179.826181     0.000002     0.225212   180.051393
	   90 D(7,8,9,10)     =      0.306577    -0.000011    -1.004276    -0.697699
	   91 D(7,8,9,17)     =   -179.846681    -0.000012    -1.069533  -180.916214
	   92 D(7,12,1,19)    =   -179.555988     0.000002     0.246094  -179.309894
	   93 D(7,12,11,10)   =     -0.432736    -0.000004    -0.384138    -0.816874
	   94 D(7,12,11,20)   =    177.806627     0.000000     0.126897   177.933524
	   95 D(8,7,6,16)     =      0.181346    -0.000001    -0.215262    -0.033916
	   96 D(8,7,12,11)    =     -0.419425     0.000004     0.419425     0.000000
	   97 D(8,9,10,11)    =     -1.135061     0.000009     1.004508    -0.130553
	   98 D(8,9,10,13)    =   -179.171376     0.000007     0.981292  -178.190084
	   99 D(9,8,7,12)     =      0.481816     0.000003     0.281237     0.763053
	  100 D(9,10,11,12)   =      1.201039    -0.000001    -0.316909     0.884130
	  101 D(9,10,11,20)   =   -177.022500    -0.000005    -0.826286  -177.848786
	  102 *D(9,10,13,14)  =   -145.903950    -0.000000     0.000000  -145.903950
	  103 D(10,9,8,18)    =   -179.545745    -0.000001    -0.131374  -179.677119
	  104 *D(10,13,14,21) =    -65.520062     0.000000    -0.000000   -65.520062
	  105 D(10,13,14,22)  =     54.959233     0.000068     2.695629    57.654862
	  106 D(10,13,14,23)  =    174.404445     0.000019     1.284734   175.689180
	  107 D(11,10,9,17)   =    179.022408     0.000010     1.066801   180.089209
	  108 *D(11,10,13,14) =     36.080606    -0.000000    -0.000000    36.080606
	  109 D(11,12,1,19)   =      0.306768    -0.000003    -0.289646     0.017122
	  110 D(12,1,2,15)    =   -179.865140    -0.000001     0.004228  -179.860912
	  111 D(12,7,6,16)    =    179.933001     0.000001    -0.019723   179.913278
	  112 D(12,7,8,18)    =   -179.662244    -0.000006    -0.572341  -180.234585
	  113 D(12,11,10,13)  =    179.293202    -0.000009    -0.413158   178.880044
	  114 D(13,10,9,17)   =      0.986094     0.000008     1.043585     2.029678
	  115 D(13,10,11,20)  =      1.069663    -0.000013    -0.922535     0.147128
	  116 D(15,2,1,19)    =      0.017828    -0.000001    -0.072710    -0.054882
	  117 D(17,9,8,18)    =      0.300998    -0.000003    -0.196631     0.104367
	 ---------------------------------------------------------------------------
	Successfully symmetrized geometry.

  ==> Convergence Check <==

  Measures of convergence in internal coordinates in au.
  Criteria marked as inactive (o), active & met (*), and active & unmet ( ).
  --------------------------------------------------------------------------------------------- ~
   Step     Total Energy     Delta E     MAX Force     RMS Force      MAX Disp      RMS Disp    ~
  --------------------------------------------------------------------------------------------- ~
    Convergence Criteria             o    2.50e-03 *    1.70e-03 *    1.00e-02 *    6.70e-03 *  ~
  --------------------------------------------------------------------------------------------- ~
      1   -1188.11283376   -1.19e+03 o    2.90e-02      7.12e-03      9.39e-02      2.15e-02    ~
  ---------------------------------------------------------------------------------------------

	Writing optimization data to binary file.
	Structure for next step:
	Cartesian Geometry (in Angstrom)
	    N    -0.6148117649  -1.4879009275  -0.4229808987
	    C    -1.9833316714  -1.4485512553  -0.4352023461
	    C    -2.6227963823  -0.0990008748  -0.0458646038
	    F    -3.3783076879   0.3082826882  -1.0981187607
	    F    -3.4536364927  -0.3307734376   1.0022365396
	    C    -1.6768529251   1.0635312975   0.3405549577
	    C    -0.2327685884   0.8028594425   0.2898707020
	    C     0.6743313863   1.8112036385   0.6268074201
	    C     2.0376872159   1.5949756743   0.5729740948
	    C     2.5279985410   0.3424177992   0.1890908983
	    C     1.6313839296  -0.6809772468  -0.1342736086
	    C     0.2621279374  -0.4520591454  -0.0930666540
	    S     4.2742528806   0.0860316803   0.1777708780
	    C     4.4681287088  -1.0464258910  -1.2276113882
	    O    -2.6618734206  -2.4053185110  -0.7350241894
	    O    -2.1681484679   2.1221954458   0.6636050211
	    H     2.7221273703   2.3987450546   0.8252689502
	    H     0.2808037361   2.7790943553   0.9177918574
	    H    -0.2312346977  -2.3881035871  -0.6861795144
	    H     1.9946066396  -1.6689052172  -0.4004836094
	    H     3.9985201047  -2.0171246652  -1.0528819652
	    H     4.0652564393  -0.6040199230  -2.1424015305
	    H     5.5441504285  -1.1853801678  -1.3391120177
			--------------------------
			 OPTKING Finished Execution 
			--------------------------

    Structure for next step:
    Molecular point group: c1
    Full point group: C1

    Geometry (in Angstrom), charge = 0, multiplicity = 1:

    N           -0.617052568616    -1.475179899155    -0.397829231634
    C           -1.985572480466    -1.435830226847    -0.410050679092
    C           -2.625037193939    -0.086279841013    -0.020712935300
    F           -3.380548502520     0.321003723569    -1.072967096382
    F           -3.455877307555    -0.318052404764     1.027388212264
    C           -1.679093732999     1.076252335818     0.365706627714
    C           -0.235009390611     0.815580479873     0.315022371860
    C            0.672090587623     1.823924679802     0.651959091245
    C            2.035446422658     1.607696714745     0.598125765707
    C            2.525757749640     0.355138834750     0.214242567681
    C            1.629143134725    -0.668256215324    -0.109121940489
    C            0.259887137176    -0.439338113036    -0.067914985634
    S            4.272012096116     0.098752714826     0.202922547396
    C            4.465887925041    -1.033704860947    -1.202459724390
    O           -2.664114232407    -2.392597486236    -0.709872523648
    O           -2.170389277719     2.134916488359     0.688756692390
    H            2.719886579656     2.411466098211     0.850420622164
    H            0.278562935944     2.791815400405     0.942943529661
    H           -0.233475499887    -2.375382562268    -0.661027848384
    H            1.992365846114    -1.656184189616    -0.375331942329
    H            3.996279319086    -2.004403638984    -1.027730300695
    H            4.063015654020    -0.591298891242    -2.117249870238
    H            5.541909649009    -1.172659138278    -1.313960354282

gradient() will perform analytic gradient computation.

*** tstart() called on cpu-spot-dy-c5n2xlarge-1
*** at Tue Jun 22 01:43:03 2021

   => Loading Basis Set <=

    Name: 6-31+G*
    Role: ORBITAL
    Keyword: BASIS
    atoms 1             entry N          line   138 file /fsx/users/francis/anaconda3/envs/poltype-dev/share/psi4/basis/6-31pgs.gbs 
    atoms 2-3, 6-12, 14 entry C          line   119 file /fsx/users/francis/anaconda3/envs/poltype-dev/share/psi4/basis/6-31pgs.gbs 
    atoms 4-5           entry F          line   176 file /fsx/users/francis/anaconda3/envs/poltype-dev/share/psi4/basis/6-31pgs.gbs 
    atoms 13            entry S          line   344 file /fsx/users/francis/anaconda3/envs/poltype-dev/share/psi4/basis/6-31pgs.gbs 
    atoms 15-16         entry O          line   157 file /fsx/users/francis/anaconda3/envs/poltype-dev/share/psi4/basis/6-31pgs.gbs 
    atoms 17-23         entry H          line    46 file /fsx/users/francis/anaconda3/envs/poltype-dev/share/psi4/basis/6-31pgs.gbs 


         ---------------------------------------------------------
                                   SCF
               by Justin Turney, Rob Parrish, Andy Simmonett
                          and Daniel G. A. Smith
                              RKS Reference
                        8 Threads,  15258 MiB Core
         ---------------------------------------------------------

  ==> Geometry <==

    Molecular point group: c1
    Full point group: C1

    Geometry (in Angstrom), charge = 0, multiplicity = 1:

       Center              X                  Y                   Z               Mass       
    ------------   -----------------  -----------------  -----------------  -----------------
         N           -0.617052568616    -1.475179899155    -0.397829231634    14.003074004430
         C           -1.985572480466    -1.435830226847    -0.410050679092    12.000000000000
         C           -2.625037193939    -0.086279841013    -0.020712935300    12.000000000000
         F           -3.380548502520     0.321003723569    -1.072967096382    18.998403162730
         F           -3.455877307555    -0.318052404764     1.027388212264    18.998403162730
         C           -1.679093732999     1.076252335818     0.365706627714    12.000000000000
         C           -0.235009390611     0.815580479873     0.315022371860    12.000000000000
         C            0.672090587623     1.823924679802     0.651959091245    12.000000000000
         C            2.035446422658     1.607696714745     0.598125765707    12.000000000000
         C            2.525757749640     0.355138834750     0.214242567681    12.000000000000
         C            1.629143134725    -0.668256215324    -0.109121940489    12.000000000000
         C            0.259887137176    -0.439338113036    -0.067914985634    12.000000000000
         S            4.272012096116     0.098752714826     0.202922547396    31.972071174400
         C            4.465887925041    -1.033704860947    -1.202459724390    12.000000000000
         O           -2.664114232407    -2.392597486236    -0.709872523648    15.994914619570
         O           -2.170389277719     2.134916488359     0.688756692390    15.994914619570
         H            2.719886579656     2.411466098211     0.850420622164     1.007825032230
         H            0.278562935944     2.791815400405     0.942943529661     1.007825032230
         H           -0.233475499887    -2.375382562268    -0.661027848384     1.007825032230
         H            1.992365846114    -1.656184189616    -0.375331942329     1.007825032230
         H            3.996279319086    -2.004403638984    -1.027730300695     1.007825032230
         H            4.063015654020    -0.591298891242    -2.117249870238     1.007825032230
         H            5.541909649009    -1.172659138278    -1.313960354282     1.007825032230

  Running in c1 symmetry.

  Rotational constants: A =      0.03603  B =      0.00876  C =      0.00740 [cm^-1]
  Rotational constants: A =   1080.02336  B =    262.50397  C =    221.99410 [MHz]
  Nuclear repulsion = 1192.508047396819165

  Charge       = 0
  Multiplicity = 1
  Electrons    = 124
  Nalpha       = 62
  Nbeta        = 62

  ==> Algorithm <==

  SCF Algorithm Type is DF.
  DIIS enabled.
  MOM disabled.
  Fractional occupation disabled.
  Guess Type is READ.
  Energy threshold   = 1.00e-08
  Density threshold  = 1.00e-08
  Integral threshold = 0.00e+00

  ==> Primary Basis <==

  Basis Set: 6-31+G*
    Blend: 6-31+G*
    Number of shells: 144
    Number of basis function: 322
    Number of Cartesian functions: 322
    Spherical Harmonics?: false
    Max angular momentum: 2

  ==> DFT Potential <==

   => Composite Functional: WB97X-D <= 

    wB97X-D Hyb-GGA Exchange-Correlation Functional

    J.-D. Chai and M. Head-Gordon, Phys. Chem. Chem. Phys. 10, 6615 (2008)

    Deriv               =              1
    GGA                 =           TRUE
    Meta                =          FALSE

    Exchange Hybrid     =           TRUE
    MP2 Hybrid          =          FALSE

   => Exchange-Correlation Functionals <=

    1.0000   wB97D range-separated functional

   => Exact (HF) Exchange <=

    0.7780            HF,LR [omega = 0.2000]
    0.2220               HF 

   => Molecular Quadrature <=

    Radial Scheme          =       TREUTLER
    Pruning Scheme         =           FLAT
    Nuclear Scheme         =       TREUTLER

    BS radius alpha        =              1
    Pruning alpha          =              1
    Radial Points          =             75
    Spherical Points       =            302
    Total Points           =         520854
    Total Blocks           =           3874
    Max Points             =            256
    Max Functions          =            282

   => WB97X-D: Empirical Dispersion <=

    Chai and Head-Gordon Dispersion Correction
    Chai, J.-D.; Head-Gordon, M. (2010), J. Chem. Phys., 132: 6615-6620

        s6 =       1.000000

   => Loading Basis Set <=

    Name: (6-31+G* AUX)
    Role: JKFIT
    Keyword: DF_BASIS_SCF
    atoms 1             entry N          line   252 file /fsx/users/francis/anaconda3/envs/poltype-dev/share/psi4/basis/heavy-aug-cc-pvdz-jkfit.gbs 
    atoms 2-3, 6-12, 14 entry C          line   194 file /fsx/users/francis/anaconda3/envs/poltype-dev/share/psi4/basis/heavy-aug-cc-pvdz-jkfit.gbs 
    atoms 4-5           entry F          line   368 file /fsx/users/francis/anaconda3/envs/poltype-dev/share/psi4/basis/heavy-aug-cc-pvdz-jkfit.gbs 
    atoms 13            entry S          line   730 file /fsx/users/francis/anaconda3/envs/poltype-dev/share/psi4/basis/heavy-aug-cc-pvdz-jkfit.gbs 
    atoms 15-16         entry O          line   310 file /fsx/users/francis/anaconda3/envs/poltype-dev/share/psi4/basis/heavy-aug-cc-pvdz-jkfit.gbs 
    atoms 17-23         entry H          line   116 file /fsx/users/francis/anaconda3/envs/poltype-dev/share/psi4/basis/heavy-aug-cc-pvdz-jkfit.gbs 

   => Loading Basis Set <=

    Name: 6-31+G*
    Role: ORBITAL
    Keyword: BASIS
    atoms 1             entry N          line   138 file /fsx/users/francis/anaconda3/envs/poltype-dev/share/psi4/basis/6-31pgs.gbs 
    atoms 2-3, 6-12, 14 entry C          line   119 file /fsx/users/francis/anaconda3/envs/poltype-dev/share/psi4/basis/6-31pgs.gbs 
    atoms 4-5           entry F          line   176 file /fsx/users/francis/anaconda3/envs/poltype-dev/share/psi4/basis/6-31pgs.gbs 
    atoms 13            entry S          line   344 file /fsx/users/francis/anaconda3/envs/poltype-dev/share/psi4/basis/6-31pgs.gbs 
    atoms 15-16         entry O          line   157 file /fsx/users/francis/anaconda3/envs/poltype-dev/share/psi4/basis/6-31pgs.gbs 
    atoms 17-23         entry H          line    46 file /fsx/users/francis/anaconda3/envs/poltype-dev/share/psi4/basis/6-31pgs.gbs 

  Reading orbitals from file 180, no projection.

  ==> Pre-Iterations <==

   -------------------------------------------------------
    Irrep   Nso     Nmo     Nalpha   Nbeta   Ndocc  Nsocc
   -------------------------------------------------------
     A        322     322       0       0       0       0
   -------------------------------------------------------
    Total     322     322      62      62      62       0
   -------------------------------------------------------

  ==> Integral Setup <==

  ==> DiskDFJK: Density-Fitted J/K Matrices <==

    J tasked:                  Yes
    K tasked:                  Yes
    wK tasked:                 Yes
    Omega:               2.000E-01
    OpenMP threads:              8
    Integrals threads:           8
    Memory [MiB]:             8402
    Algorithm:                Core
    Integral Cache:           NONE
    Schwarz Cutoff:          1E-12
    Fitting Condition:       1E-10

   => Auxiliary Basis Set <=

  Basis Set: (6-31+G* AUX)
    Blend: HEAVY-AUG-CC-PVDZ-JKFIT
    Number of shells: 523
    Number of basis function: 1840
    Number of Cartesian functions: 1840
    Spherical Harmonics?: false
    Max angular momentum: 3

  Cached 100.0% of DFT collocation blocks in 2.970 [GiB].

  Minimum eigenvalue in the overlap matrix is 4.8151514488E-07.
  Using Symmetric Orthogonalization.

  SCF Guess: Orbitals guess was supplied from a previous computation.

  ==> Iterations <==

                           Total Energy        Delta E     RMS |[F,P]|

   @DF-RKS iter   0: -1188.30079880503581   -1.18830e+03   1.94204e-03 
   @DF-RKS iter   1: -1188.11214863749001    1.88650e-01   3.49413e-04 DIIS
   @DF-RKS iter   2: -1188.11282567526564   -6.77038e-04   3.98562e-04 DIIS
   @DF-RKS iter   3: -1188.12008841237275   -7.26274e-03   8.34268e-05 DIIS
   @DF-RKS iter   4: -1188.12034949434110   -2.61082e-04   2.73113e-05 DIIS
   @DF-RKS iter   5: -1188.12039112116531   -4.16268e-05   6.48063e-06 DIIS
   @DF-RKS iter   6: -1188.12039442128480   -3.30012e-06   1.91019e-06 DIIS
   @DF-RKS iter   7: -1188.12039479821556   -3.76931e-07   9.57370e-07 DIIS
   @DF-RKS iter   8: -1188.12039489305971   -9.48442e-08   3.47517e-07 DIIS
   @DF-RKS iter   9: -1188.12039491666928   -2.36096e-08   1.74541e-07 DIIS
   @DF-RKS iter  10: -1188.12039492157123   -4.90195e-09   8.05045e-08 DIIS
   @DF-RKS iter  11: -1188.12039492288886   -1.31763e-09   3.89716e-08 DIIS
   @DF-RKS iter  12: -1188.12039492309145   -2.02590e-10   1.81396e-08 DIIS
   @DF-RKS iter  13: -1188.12039492313488   -4.34284e-11   7.71871e-09 DIIS
  Energy and wave function converged.


  ==> Post-Iterations <==

    Orbital Energies [Eh]
    ---------------------

    Doubly Occupied:                                                      

       1A    -89.081062     2A    -24.872909     3A    -24.872398  
       4A    -19.304177     5A    -19.294108     6A    -14.543123  
       7A    -10.501602     8A    -10.454837     9A    -10.429741  
      10A    -10.407124    11A    -10.384447    12A    -10.355401  
      13A    -10.350402    14A    -10.349753    15A    -10.349152  
      16A    -10.339596    17A     -8.098562    18A     -6.049264  
      19A     -6.044998    20A     -6.038544    21A     -1.391369  
      22A     -1.330236    23A     -1.194873    24A     -1.183994  
      25A     -1.101434    26A     -1.007340    27A     -0.944727  
      28A     -0.906743    29A     -0.892666    30A     -0.868212  
      31A     -0.798054    32A     -0.771798    33A     -0.755879  
      34A     -0.742689    35A     -0.698891    36A     -0.683804  
      37A     -0.671027    38A     -0.649502    39A     -0.630246  
      40A     -0.593694    41A     -0.584158    42A     -0.570683  
      43A     -0.565532    44A     -0.562929    45A     -0.556273  
      46A     -0.553648    47A     -0.545659    48A     -0.535402  
      49A     -0.527072    50A     -0.517694    51A     -0.509764  
      52A     -0.502828    53A     -0.491721    54A     -0.480822  
      55A     -0.472326    56A     -0.446616    57A     -0.431741  
      58A     -0.396708    59A     -0.390129    60A     -0.366402  
      61A     -0.343551    62A     -0.321861  

    Virtual:                                                              

      63A     -0.045566    64A      0.012483    65A      0.036118  
      66A      0.050857    67A      0.057660    68A      0.062267  
      69A      0.066136    70A      0.077557    71A      0.078247  
      72A      0.088382    73A      0.092732    74A      0.099589  
      75A      0.104403    76A      0.112307    77A      0.112811  
      78A      0.117222    79A      0.122042    80A      0.130225  
      81A      0.135198    82A      0.138376    83A      0.143121  
      84A      0.150684    85A      0.159653    86A      0.163206  
      87A      0.168299    88A      0.173347    89A      0.175140  
      90A      0.182265    91A      0.185840    92A      0.192018  
      93A      0.197371    94A      0.199776    95A      0.204851  
      96A      0.209688    97A      0.215947    98A      0.222447  
      99A      0.228400   100A      0.231904   101A      0.240083  
     102A      0.242820   103A      0.243628   104A      0.247657  
     105A      0.249892   106A      0.252378   107A      0.254261  
     108A      0.256677   109A      0.267353   110A      0.268102  
     111A      0.273288   112A      0.285500   113A      0.290619  
     114A      0.294023   115A      0.300706   116A      0.305558  
     117A      0.309702   118A      0.313706   119A      0.318869  
     120A      0.321003   121A      0.325303   122A      0.332051  
     123A      0.338556   124A      0.347405   125A      0.356961  
     126A      0.364723   127A      0.369230   128A      0.376939  
     129A      0.384687   130A      0.390269   131A      0.392116  
     132A      0.394875   133A      0.399012   134A      0.401819  
     135A      0.410764   136A      0.415302   137A      0.424215  
     138A      0.435323   139A      0.445173   140A      0.445811  
     141A      0.461211   142A      0.470663   143A      0.478728  
     144A      0.490871   145A      0.503508   146A      0.517915  
     147A      0.531485   148A      0.534241   149A      0.541772  
     150A      0.551661   151A      0.565722   152A      0.576775  
     153A      0.602091   154A      0.607428   155A      0.616792  
     156A      0.644846   157A      0.669503   158A      0.670979  
     159A      0.695464   160A      0.706051   161A      0.722076  
     162A      0.738873   163A      0.748005   164A      0.756085  
     165A      0.768974   166A      0.773172   167A      0.781970  
     168A      0.802787   169A      0.819618   170A      0.823677  
     171A      0.833509   172A      0.854084   173A      0.870174  
     174A      0.873572   175A      0.883580   176A      0.894471  
     177A      0.915294   178A      0.917830   179A      0.931753  
     180A      0.940148   181A      0.964700   182A      0.969398  
     183A      0.979645   184A      0.996570   185A      1.004857  
     186A      1.024446   187A      1.045823   188A      1.059156  
     189A      1.075135   190A      1.083527   191A      1.088641  
     192A      1.108178   193A      1.115766   194A      1.155230  
     195A      1.156698   196A      1.170199   197A      1.198283  
     198A      1.203386   199A      1.209173   200A      1.224028  
     201A      1.228387   202A      1.241609   203A      1.273974  
     204A      1.282861   205A      1.300829   206A      1.322650  
     207A      1.328404   208A      1.335422   209A      1.346067  
     210A      1.389214   211A      1.404662   212A      1.409598  
     213A      1.410964   214A      1.417699   215A      1.436349  
     216A      1.451611   217A      1.462973   218A      1.465282  
     219A      1.473908   220A      1.481531   221A      1.509630  
     222A      1.513535   223A      1.527181   224A      1.530602  
     225A      1.568415   226A      1.602471   227A      1.627876  
     228A      1.658643   229A      1.673418   230A      1.682666  
     231A      1.713998   232A      1.748229   233A      1.759405  
     234A      1.761029   235A      1.763524   236A      1.768966  
     237A      1.774913   238A      1.787487   239A      1.798180  
     240A      1.829996   241A      1.839499   242A      1.876575  
     243A      1.891507   244A      1.897933   245A      1.914299  
     246A      1.922351   247A      1.924426   248A      1.960812  
     249A      1.969433   250A      1.974059   251A      1.982757  
     252A      2.021604   253A      2.043780   254A      2.056094  
     255A      2.066519   256A      2.069979   257A      2.094990  
     258A      2.117237   259A      2.119771   260A      2.141146  
     261A      2.175922   262A      2.178618   263A      2.187497  
     264A      2.215825   265A      2.222780   266A      2.234146  
     267A      2.258341   268A      2.262489   269A      2.279369  
     270A      2.284772   271A      2.321527   272A      2.324394  
     273A      2.330504   274A      2.343645   275A      2.365024  
     276A      2.385709   277A      2.393756   278A      2.432667  
     279A      2.482986   280A      2.488669   281A      2.534872  
     282A      2.558569   283A      2.605556   284A      2.655252  
     285A      2.689751   286A      2.693332   287A      2.737091  
     288A      2.749131   289A      2.764549   290A      2.789845  
     291A      2.794609   292A      2.843535   293A      2.844050  
     294A      2.879958   295A      2.930585   296A      2.971351  
     297A      2.994825   298A      3.053319   299A      3.155849  
     300A      3.188228   301A      3.224211   302A      3.258031  
     303A      3.372229   304A      3.423979   305A      3.516098  
     306A      3.526758   307A      4.040085   308A      4.298691  
     309A      4.316362   310A      4.345724   311A      4.371923  
     312A      4.388666   313A      4.424248   314A      4.487878  
     315A      4.494850   316A      4.531524   317A      4.601872  
     318A      4.820681   319A      4.884035   320A      5.166594  
     321A      5.716198   322A      7.260946  

    Final Occupation by Irrep:
              A 
    DOCC [    62 ]

  @DF-RKS Final Energy: -1188.12039492313488

   => Energetics <=

    Nuclear Repulsion Energy =           1192.5080473968191654
    One-Electron Energy =               -3998.8901071720110849
    Two-Electron Energy =                1707.8384701256338758
    DFT Exchange-Correlation Energy =     -89.5630562836817035
    Empirical Dispersion Energy =          -0.0137489898951232
    VV10 Nonlocal Energy =                  0.0000000000000000
    Total Energy =                      -1188.1203949231346542

Computation Completed


Properties will be evaluated at   0.000000,   0.000000,   0.000000 [a0]

Properties computed using the SCF density matrix

  Nuclear Dipole Moment: [e a0]
     X:    23.7510      Y:    -2.4314      Z:    -3.4210

  Electronic Dipole Moment: [e a0]
     X:   -20.8782      Y:     1.8657      Z:     2.9204

  Dipole Moment: [e a0]
     X:     2.8728      Y:    -0.5657      Z:    -0.5007     Total:     2.9705

  Dipole Moment: [D]
     X:     7.3021      Y:    -1.4378      Z:    -1.2726     Total:     7.5503


*** tstop() called on cpu-spot-dy-c5n2xlarge-1 at Tue Jun 22 01:44:06 2021
Module time:
	user time   =     475.83 seconds =       7.93 minutes
	system time =       6.88 seconds =       0.11 minutes
	total time  =         63 seconds =       1.05 minutes
Total time:
	user time   =    1197.57 seconds =      19.96 minutes
	system time =      21.04 seconds =       0.35 minutes
	total time  =        164 seconds =       2.73 minutes

*** tstart() called on cpu-spot-dy-c5n2xlarge-1
*** at Tue Jun 22 01:44:06 2021


         ------------------------------------------------------------
                                   SCF GRAD                          
                          Rob Parrish, Justin Turney,                
                       Andy Simmonett, and Alex Sokolov              
         ------------------------------------------------------------

  ==> Geometry <==

    Molecular point group: c1
    Full point group: C1

    Geometry (in Angstrom), charge = 0, multiplicity = 1:

       Center              X                  Y                   Z               Mass       
    ------------   -----------------  -----------------  -----------------  -----------------
         N           -0.617052568616    -1.475179899155    -0.397829231634    14.003074004430
         C           -1.985572480466    -1.435830226847    -0.410050679092    12.000000000000
         C           -2.625037193939    -0.086279841013    -0.020712935300    12.000000000000
         F           -3.380548502520     0.321003723569    -1.072967096382    18.998403162730
         F           -3.455877307555    -0.318052404764     1.027388212264    18.998403162730
         C           -1.679093732999     1.076252335818     0.365706627714    12.000000000000
         C           -0.235009390611     0.815580479873     0.315022371860    12.000000000000
         C            0.672090587623     1.823924679802     0.651959091245    12.000000000000
         C            2.035446422658     1.607696714745     0.598125765707    12.000000000000
         C            2.525757749640     0.355138834750     0.214242567681    12.000000000000
         C            1.629143134725    -0.668256215324    -0.109121940489    12.000000000000
         C            0.259887137176    -0.439338113036    -0.067914985634    12.000000000000
         S            4.272012096116     0.098752714826     0.202922547396    31.972071174400
         C            4.465887925041    -1.033704860947    -1.202459724390    12.000000000000
         O           -2.664114232407    -2.392597486236    -0.709872523648    15.994914619570
         O           -2.170389277719     2.134916488359     0.688756692390    15.994914619570
         H            2.719886579656     2.411466098211     0.850420622164     1.007825032230
         H            0.278562935944     2.791815400405     0.942943529661     1.007825032230
         H           -0.233475499887    -2.375382562268    -0.661027848384     1.007825032230
         H            1.992365846114    -1.656184189616    -0.375331942329     1.007825032230
         H            3.996279319086    -2.004403638984    -1.027730300695     1.007825032230
         H            4.063015654020    -0.591298891242    -2.117249870238     1.007825032230
         H            5.541909649009    -1.172659138278    -1.313960354282     1.007825032230

  Nuclear repulsion = 1192.508047396819165

  ==> Basis Set <==

  Basis Set: 6-31+G*
    Blend: 6-31+G*
    Number of shells: 144
    Number of basis function: 322
    Number of Cartesian functions: 322
    Spherical Harmonics?: false
    Max angular momentum: 2

  ==> DFJKGrad: Density-Fitted SCF Gradients <==

    Gradient:                    1
    J tasked:                  Yes
    K tasked:                  Yes
    wK tasked:                 Yes
    Omega:               2.000E-01
    OpenMP threads:              8
    Integrals threads:           8
    Memory [MiB]:            11444
    Schwarz Cutoff:          0E+00
    Fitting Condition:       1E-10

   => Auxiliary Basis Set <=

  Basis Set: (6-31+G* AUX)
    Blend: HEAVY-AUG-CC-PVDZ-JKFIT
    Number of shells: 523
    Number of basis function: 1840
    Number of Cartesian functions: 1840
    Spherical Harmonics?: false
    Max angular momentum: 3

  ==> DFT Potential <==

   => Composite Functional: WB97X-D <= 

    wB97X-D Hyb-GGA Exchange-Correlation Functional

    J.-D. Chai and M. Head-Gordon, Phys. Chem. Chem. Phys. 10, 6615 (2008)

    Deriv               =              1
    GGA                 =           TRUE
    Meta                =          FALSE

    Exchange Hybrid     =           TRUE
    MP2 Hybrid          =          FALSE

   => Exchange-Correlation Functionals <=

    1.0000   wB97D range-separated functional

   => Exact (HF) Exchange <=

    0.7780            HF,LR [omega = 0.2000]
    0.2220               HF 

   => Molecular Quadrature <=

    Radial Scheme          =       TREUTLER
    Pruning Scheme         =           FLAT
    Nuclear Scheme         =       TREUTLER

    BS radius alpha        =              1
    Pruning alpha          =              1
    Radial Points          =             75
    Spherical Points       =            302
    Total Points           =         520854
    Total Blocks           =           3874
    Max Points             =            256
    Max Functions          =            282


  -Total Gradient:
     Atom            X                  Y                   Z
    ------   -----------------  -----------------  -----------------
       1        0.000415390798     0.003000302309     0.000964822595
       2        0.000522877804     0.002492922841     0.000704966612
       3        0.005246969184     0.000254973854    -0.000202250121
       4       -0.001323320687     0.000344001017    -0.000749715066
       5       -0.001603238591    -0.000181064734     0.001206946218
       6       -0.001817599571    -0.003078823735    -0.001159509633
       7        0.001212736474    -0.000242155713     0.000011568281
       8        0.000121973467    -0.001176041461    -0.000237778522
       9       -0.000081917655    -0.004051715844    -0.002921114301
      10        0.002795706162     0.005366087223     0.001665550408
      11       -0.003621644408    -0.000253950153     0.000004218494
      12        0.003998928268    -0.000652788527    -0.000056504515
      13       -0.000647569065    -0.000521081238     0.001179925436
      14        0.000597798414    -0.000578029705    -0.000319734573
      15       -0.000829901311    -0.002165248471    -0.000678412978
      16        0.000462033043     0.000808253322     0.000343981464
      17       -0.000700753068     0.000486759159     0.000740973771
      18        0.000660606016    -0.000482246766    -0.000192970604
      19       -0.000930860741    -0.000540010188    -0.000171338676
      20        0.000565432016    -0.000454524734     0.000190519246
      21       -0.002373396168     0.000437090317    -0.000831999976
      22       -0.000241589082    -0.000481705384    -0.000460947787
      23       -0.000890894544     0.001463116615     0.001002862983


*** tstop() called on cpu-spot-dy-c5n2xlarge-1 at Tue Jun 22 01:44:30 2021
Module time:
	user time   =     149.13 seconds =       2.49 minutes
[...]
	 B(13,14,22)      =         1.931807	     110.684378
	 B(13,14,23)      =         1.848382	     105.904468
	 B(21,14,22)      =         1.919417	     109.974511
	 B(21,14,23)      =         1.893516	     108.490502
	 B(22,14,23)      =         1.905032	     109.150316
	 D(1,2,3,4)       =         1.496300	      85.731648
	 D(1,2,3,5)       =        -2.747045	    -157.394100
	 D(1,2,3,6)       =        -0.536026	     -30.712023
	 D(1,12,7,6)      =        -0.025220	      -1.445005
	 D(1,12,7,8)      =         3.094022	     177.274430
	 D(1,12,11,10)    =        -3.112590	    -178.338287
	 D(1,12,11,20)    =         0.014598	       0.836390
	 D(2,1,12,7)      =         0.068315	       3.914170
	 D(2,1,12,11)     =        -3.117099	    -178.596595
	 D(2,3,6,7)       =         0.574966	      32.943131
	 D(2,3,6,16)      =        -2.621812	    -150.218742
	 D(3,2,1,12)      =         0.223596	      12.811080
	 D(3,2,1,19)      =        -3.040189	    -174.190026
	 D(3,6,7,8)       =         2.865317	     164.170560
	 D(3,6,7,12)      =        -0.298942	     -17.128125
	 D(4,3,2,15)      =        -1.580905	     -90.579186
	 D(4,3,6,7)       =        -1.457507	     -83.508984
	 D(4,3,6,16)      =         1.628901	      93.329143
	 D(5,3,2,15)      =         0.458935	      26.295066
	 D(5,3,6,7)       =         2.775374	     159.017229
	 D(5,3,6,16)      =        -0.421404	     -24.144644
	 D(6,3,2,15)      =         2.669955	     152.977143
	 D(6,7,8,9)       =        -3.140165	    -179.918181
	 D(6,7,8,18)      =        -0.022385	      -1.282566
	 D(6,7,12,11)     =        -3.122537	    -178.908211
	 D(7,8,9,10)      =        -0.026205	      -1.501458
	 D(7,8,9,17)      =         3.102055	     177.734640
	 D(7,12,1,19)     =        -2.946947	    -168.847614
	 D(7,12,11,10)    =        -0.014511	      -0.831439
	 D(7,12,11,20)    =         3.112677	     178.343238
	 D(8,7,6,16)      =        -0.217837	     -12.481130
	 D(8,7,12,11)     =        -0.003295	      -0.188776
	 D(8,9,10,11)     =         0.008013	       0.459088
	 D(8,9,10,13)     =        -3.100020	    -177.618076
	 D(9,8,7,12)      =         0.023836	       1.365703
	 D(9,10,11,12)    =         0.012236	       0.701050
	 D(9,10,11,20)    =        -3.114737	    -178.461288
	*D(9,10,13,14)    =        -2.546504	    -145.903950
	 D(10,9,8,18)     =         3.139835	     179.899286
	*D(10,13,14,21)   =        -1.143541	     -65.520062
	 D(10,13,14,22)   =         1.011437	      57.951084
	 D(10,13,14,23)   =         3.074006	     176.127591
	 D(11,10,9,17)    =        -3.120339	    -178.782270
	*D(11,10,13,14)   =         0.629725	      36.080606
	 D(11,12,1,19)    =         0.150825	       8.641621
	 D(12,1,2,15)     =        -2.983049	    -170.916094
	 D(12,7,6,16)     =         2.901090	     166.220185
	 D(12,7,8,18)     =        -3.141570	    -179.998683
	 D(12,11,10,13)   =         3.118287	     178.664677
	 D(13,10,9,17)    =         0.054813	       3.140566
	 D(13,10,11,20)   =        -0.008686	      -0.497662
	 D(15,2,1,19)     =         0.036352	       2.082800
	 D(17,9,8,18)     =        -0.015090	      -0.864616

	Current energy   :     -1188.1219160229

	Energy change for the previous step:
		Projected    :        -0.0001127828
		Actual       :        -0.0000170264

	Performing BFGS update.
	Previous computed or guess Hessian on step 1.
	Steps to be used in Hessian update: 13 12
	Taking RFO optimization step.
	Going to follow RFO solution 1.
	Using RFO vector 1.
	Norm of target step-size    0.02531
	Projected energy change by RFO approximation:        -0.0000118340

	Back-transformation to cartesian coordinates...
	Could not converge backtransformation.
	Using first guess instead.

	Back-transformation to cartesian coordinates to adjust frozen coordinates...
	Successfully converged to displaced geometry.

	--- Internal Coordinate Step in ANG or DEG, aJ/ANG or AJ/DEG ---
	 ---------------------------------------------------------------------------
	   Coordinate                Previous        Force       Change         New 
	   ----------                --------       ------       ------       ------
	    1 R(1,2)          =      1.370941     0.000201    -0.000028     1.370913
	    2 R(1,12)         =      1.400395    -0.000796    -0.000148     1.400247
	    3 R(1,19)         =      1.012737    -0.000001     0.000023     1.012759
	    4 R(2,3)          =      1.545110     0.001305     0.000143     1.545253
	    5 R(2,15)         =      1.208074     0.002179     0.000154     1.208228
	    6 R(3,4)          =      1.374302     0.012900     0.001949     1.376251
	    7 R(3,5)          =      1.331829     0.017892     0.002578     1.334407
	    8 R(3,6)          =      1.548790     0.001525     0.000302     1.549092
	    9 R(6,7)          =      1.469395     0.001778     0.000356     1.469751
	   10 R(6,16)         =      1.209339    -0.004619    -0.000326     1.209014
	   11 R(7,8)          =      1.399634    -0.001154    -0.000101     1.399532
	   12 R(7,12)         =      1.404299    -0.002750    -0.000468     1.403831
	   13 R(8,9)          =      1.382228    -0.001028    -0.000177     1.382051
	   14 R(8,18)         =      1.085719    -0.000379    -0.000052     1.085667
	   15 R(9,10)         =      1.405169    -0.001220    -0.000123     1.405047
	   16 R(9,17)         =      1.085105     0.000081     0.000029     1.085134
	   17 R(10,11)        =      1.394707     0.000480     0.000075     1.394782
	   18 R(10,13)        =      1.770350     0.001020     0.000188     1.770538
	   19 R(11,12)        =      1.394449    -0.001251    -0.000103     1.394346
	   20 R(11,20)        =      1.085724    -0.000613    -0.000089     1.085635
	   21 R(13,14)        =      1.814135     0.001030     0.000201     1.814336
	   22 R(14,21)        =      1.092266    -0.000162    -0.000019     1.092247
	   23 R(14,22)        =      1.092538     0.000002     0.000018     1.092556
	   24 R(14,23)        =      1.092536    -0.000062    -0.000012     1.092524
	   25 B(1,2,3)        =    113.967030     0.000012     0.074603   114.041632
	   26 B(1,2,15)       =    123.413828    -0.000003    -0.021741   123.392087
	   27 B(1,12,7)       =    120.788042    -0.000001     0.002560   120.790601
	   28 B(1,12,11)      =    119.061959    -0.000000     0.003170   119.065130
	   29 B(2,1,12)       =    126.242798     0.000004     0.022407   126.265205
	   30 B(2,1,19)       =    114.813716     0.000001    -0.012860   114.800856
	   31 B(2,3,4)        =    105.658676     0.000007     0.054466   105.713142
	   32 B(2,3,5)        =    109.860401     0.000009    -0.026340   109.834061
	   33 B(2,3,6)        =    115.656198    -0.000028     0.008922   115.665120
	   34 B(3,2,15)       =    122.509465    -0.000009    -0.041368   122.468097
	   35 B(3,6,7)        =    114.538927     0.000013     0.071233   114.610160
	   36 B(3,6,16)       =    120.135974    -0.000010    -0.048316   120.087658
	   37 B(4,3,5)        =    108.522353    -0.000006    -0.058854   108.463499
	   38 B(4,3,6)        =    105.643684     0.000008     0.045113   105.688797
	   39 B(5,3,6)        =    111.060798     0.000011    -0.021621   111.039177
	   40 B(6,7,8)        =    120.547557     0.000000    -0.016064   120.531493
	   41 B(6,7,12)       =    120.295115    -0.000001     0.016991   120.312106
	   42 B(7,6,16)       =    125.241038    -0.000002    -0.018777   125.222261
	   43 B(7,8,9)        =    120.985215     0.000004     0.008994   120.994209
	   44 B(7,8,18)       =    118.169166    -0.000002    -0.005808   118.163358
	   45 B(7,12,11)      =    120.102246     0.000001    -0.001734   120.100512
	   46 B(8,7,12)       =    119.144796     0.000000    -0.000184   119.144612
	   47 B(8,9,10)       =    119.698401    -0.000000     0.002070   119.700471
	   48 B(8,9,17)       =    120.489334    -0.000003    -0.017779   120.471555
	   49 B(9,8,18)       =    120.831321    -0.000002    -0.003738   120.827583
	   50 B(9,10,11)      =    119.906048    -0.000009    -0.022590   119.883458
	   51 B(9,10,13)      =    117.193467     0.000012     0.040479   117.233945
	   52 B(10,9,17)      =    119.807871     0.000003     0.015215   119.823086
	   53 B(10,11,12)     =    120.143282     0.000004     0.013157   120.156439
	   54 B(10,11,20)     =    120.664157     0.000001     0.007826   120.671984
	   55 B(10,13,14)     =    102.820193     0.000014     0.027425   102.847618
	   56 B(11,10,13)     =    122.870864    -0.000003    -0.017877   122.852987
	   57 B(12,1,19)      =    118.586718    -0.000006    -0.029170   118.557548
	   58 B(12,11,20)     =    119.187343    -0.000004    -0.020327   119.167016
	   59 B(13,14,21)     =    112.490960     0.000004     0.023537   112.514497
	   60 B(13,14,22)     =    110.684378     0.000001     0.003717   110.688095
	   61 B(13,14,23)     =    105.904468     0.000007     0.028554   105.933023
	   62 B(21,14,22)     =    109.974511    -0.000004    -0.027390   109.947121
	   63 B(21,14,23)     =    108.490502    -0.000004    -0.010114   108.480387
	   64 B(22,14,23)     =    109.150316    -0.000004    -0.017777   109.132539
	   65 D(1,2,3,4)      =     85.731648     0.000001     0.464783    86.196431
	   66 D(1,2,3,5)      =   -157.394100     0.000001     0.412375  -156.981725
	   67 D(1,2,3,6)      =    -30.712023     0.000001     0.367061   -30.344963
	   68 D(1,12,7,6)     =     -1.445005    -0.000000     0.035253    -1.409752
	   69 D(1,12,7,8)     =    177.274430    -0.000000     0.073558   177.347987
	   70 D(1,12,11,10)   =   -178.338287    -0.000000    -0.108404  -178.446691
	   71 D(1,12,11,20)   =      0.836390     0.000000    -0.054722     0.781667
	   72 D(2,1,12,7)     =      3.914170     0.000000    -0.036617     3.877553
	   73 D(2,1,12,11)    =   -178.596595     0.000000     0.070635  -178.525960
	   74 D(2,3,6,7)      =     32.943131    -0.000001    -0.371346    32.571785
	   75 D(2,3,6,16)     =   -150.218742    -0.000001    -0.292991  -150.511733
	   76 D(3,2,1,12)     =     12.811080     0.000001    -0.158230    12.652850
	   77 D(3,2,1,19)     =   -174.190026    -0.000001    -0.349764  -174.539790
	   78 D(3,6,7,8)      =    164.170560    -0.000001     0.120066   164.290627
	   79 D(3,6,7,12)     =    -17.128125    -0.000001     0.159120   -16.969005
	   80 D(4,3,2,15)     =    -90.579186    -0.000000     0.266834   -90.312352
	   81 D(4,3,6,7)      =    -83.508984    -0.000001    -0.474322   -83.983305
	   82 D(4,3,6,16)     =     93.329143    -0.000000    -0.395966    92.933177
	   83 D(5,3,2,15)     =     26.295066    -0.000000     0.214426    26.509492
	   84 D(5,3,6,7)      =    159.017229    -0.000001    -0.419311   158.597918
	   85 D(5,3,6,16)     =    -24.144644    -0.000001    -0.340956   -24.485600
	   86 D(6,3,2,15)     =    152.977143    -0.000000     0.169111   153.146254
	   87 D(6,7,8,9)      =   -179.918181     0.000000     0.066443  -179.851737
	   88 D(6,7,8,18)     =     -1.282566    -0.000000     0.040288    -1.242279
	   89 D(6,7,12,11)    =   -178.908211    -0.000000    -0.073230  -178.981441
	   90 D(7,8,9,10)     =     -1.501458    -0.000000     0.016483    -1.484975
	   91 D(7,8,9,17)     =    177.734640    -0.000000    -0.025283   177.709357
	   92 D(7,12,1,19)    =   -168.847614     0.000002     0.160177  -168.687436
	   93 D(7,12,11,10)   =     -0.831439    -0.000000    -0.001800    -0.833239
	   94 D(7,12,11,20)   =    178.343238     0.000000     0.051882   178.395120
	   95 D(8,7,6,16)     =    -12.481130    -0.000001     0.037923   -12.443206
	   96 D(8,7,12,11)    =     -0.188776    -0.000000    -0.034925    -0.223701
	   97 D(8,9,10,11)    =      0.459088    -0.000000    -0.053507     0.405580
	   98 D(8,9,10,13)    =   -177.618076    -0.000000    -0.053556  -177.671631
	   99 D(9,8,7,12)     =      1.365703     0.000000     0.027617     1.393320
	  100 D(9,10,11,12)   =      0.701050     0.000000     0.046095     0.747145
	  101 D(9,10,11,20)   =   -178.461288     0.000000    -0.008171  -178.469459
	  102 *D(9,10,13,14)  =   -145.903950    -0.000000     0.000000  -145.903950
	  103 D(10,9,8,18)    =    179.899286     0.000000     0.043358   179.942644
	  104 *D(10,13,14,21) =    -65.520062     0.000000     0.000000   -65.520062
	  105 D(10,13,14,22)  =     57.951084    -0.000000    -0.015833    57.935251
	  106 D(10,13,14,23)  =    176.127591    -0.000000    -0.018462   176.109129
	  107 D(11,10,9,17)   =   -178.782270    -0.000000    -0.011760  -178.794031
	  108 *D(11,10,13,14) =     36.080606     0.000000    -0.000000    36.080606
	  109 D(11,12,1,19)   =      8.641621     0.000002     0.267430     8.909051
	  110 D(12,1,2,15)    =   -170.916094     0.000002     0.041024  -170.875070
	  111 D(12,7,6,16)    =    166.220185    -0.000001     0.076977   166.297162
	  112 D(12,7,8,18)    =   -179.998683     0.000000     0.001462  -179.997221
	  113 D(12,11,10,13)  =    178.664677     0.000000     0.047297   178.711973
	  114 D(13,10,9,17)   =      3.140566    -0.000000    -0.011809     3.128757
	  115 D(13,10,11,20)  =     -0.497662     0.000000    -0.006969    -0.504631
	  116 D(15,2,1,19)    =      2.082800     0.000001    -0.150511     1.932290
	  117 D(17,9,8,18)    =     -0.864616    -0.000000     0.001592    -0.863024
	 ---------------------------------------------------------------------------
	Successfully symmetrized geometry.

  ==> Convergence Check <==

  Measures of convergence in internal coordinates in au.
  Criteria marked as inactive (o), active & met (*), and active & unmet ( ).
  ---------------------------------------------------------------------------------------------
   Step     Total Energy     Delta E     MAX Force     RMS Force      MAX Disp      RMS Disp   
  ---------------------------------------------------------------------------------------------
    Convergence Criteria             o    2.50e-03 *    1.70e-03 *    1.00e-02 *    6.70e-03 *
  ---------------------------------------------------------------------------------------------
     14   -1188.12191602   -1.70e-05 o    2.17e-03 *    2.68e-04 *    8.28e-03 *    2.34e-03 *  ~
  ---------------------------------------------------------------------------------------------


  **** Optimization is complete! (in 14 steps) ****

  ==> Optimization Summary <==

  Measures of convergence in internal coordinates in au.
  --------------------------------------------------------------------------------------------------------------- ~
   Step         Total Energy             Delta E       MAX Force       RMS Force        MAX Disp        RMS Disp  ~
  --------------------------------------------------------------------------------------------------------------- ~
      1   -1188.120855376706  -1188.120855376706      0.00092378      0.00020526      0.03102519      0.00643107  ~
      2   -1188.120863741510     -0.000008364804      0.00116496      0.00019039      0.04664732      0.01193341  ~
      3   -1188.120918844672     -0.000055103161      0.00151665      0.00022057      0.06322846      0.01849215  ~
      4   -1188.120998789612     -0.000079944940      0.00268456      0.00041436      0.06599783      0.01849224  ~
      5   -1188.121091552339     -0.000092762727      0.00268477      0.00046420      0.06479983      0.01849238  ~
      6   -1188.121186088290     -0.000094535951      0.00297883      0.00051970      0.03265603      0.00924122  ~
      7   -1188.121243366500     -0.000057278210      0.00374363      0.00057848      0.06554727      0.01849405  ~
      8   -1188.121392846094     -0.000149479593      0.00297043      0.00047382      0.03523605      0.00924356  ~
      9   -1188.121448328325     -0.000055482232      0.00322075      0.00064166      0.06428048      0.01849412  ~
     10   -1188.121668251277     -0.000219922951      0.00162304      0.00023290      0.05961690      0.01849389  ~
     11   -1188.121813779567     -0.000145528291      0.00094959      0.00012484      0.06376943      0.01849298  ~
     12   -1188.121892755955     -0.000078976387      0.00152519      0.00027746      0.03633567      0.00922906  ~
     13   -1188.121898996481     -0.000006240526      0.00285652      0.00032719      0.01333325      0.00272458  ~
     14   -1188.121916022926     -0.000017026445      0.00217172      0.00026775      0.00827847      0.00234036  ~
  --------------------------------------------------------------------------------------------------------------- ~

	Writing optimization data to binary file.
	Final energy is  -1188.1219160229261
	Final (previous) structure:
	Cartesian Geometry (in Angstrom)
	    N    -0.5832108260  -1.5715689260  -0.1748193704
	    C    -1.9469954134  -1.5948601120  -0.0368791261
	    C    -2.5932762606  -0.1939697993   0.0479290517
	    F    -2.7926099177   0.2019420662  -1.2529267751
	    F    -3.7778365184  -0.2779091980   0.6508714506
	    C    -1.7183519836   0.9103378206   0.6911722580
	    C    -0.2766209013   0.7664349227   0.4465784613
	    C     0.5938323135   1.8388473211   0.6728908036
	    C     1.9512882010   1.7140044739   0.4442364700
	    C     2.4736021068   0.4846573411   0.0078945785
	    C     1.6202547454  -0.5985395067  -0.2011285691
	    C     0.2485545554  -0.4598666820   0.0079094667
	    S     4.2283332478   0.3799744370  -0.2021043195
	    C     4.3982816138  -0.7461466847  -1.6142145040
	    O    -2.5997786484  -2.6112894124  -0.0505880046
	    O    -2.2373449790   1.8274172545   1.2845630998
	    H     2.6139208811   2.5612898472   0.5873350846
	    H     0.1708408296   2.7795895203   1.0118124762
	    H    -0.1556037622  -2.4773716698  -0.3241814916
	    H     2.0135027619  -1.5608893963  -0.5142335737
	    H     4.0472528780  -1.7555004962  -1.3883169444
	    H     3.8701318363  -0.3538044626  -2.4864332880
	    H     5.4676025093  -0.7921429205  -1.8334689513
	Saving final (previous) structure.
			--------------------------
			 OPTKING Finished Execution 
			--------------------------

    Final optimized geometry and variables:
    Molecular point group: c1
    Full point group: C1

    Geometry (in Angstrom), charge = 0, multiplicity = 1:

    N           -0.583210828292    -1.571568932199    -0.174819371090
    C           -1.946995421031    -1.594860118276    -0.036879126211
    C           -2.593276270767    -0.193969800022     0.047929051840
    F           -2.792609928631     0.201942067028    -1.252926780011
    F           -3.777836533233    -0.277909199078     0.650871453193
    C           -1.718351990377     0.910337824129     0.691172260746
    C           -0.276620902372     0.766434925744     0.446578463095
    C            0.593832315865     1.838847328302     0.672890806288
    C            1.951288208620     1.714004480598     0.444236471772
    C            2.473602116546     0.484657342971     0.007894578509
    C            1.620254751779    -0.598539509099    -0.201128569866
    C            0.248554556335    -0.459866683808     0.007909466770
    S            4.228333264441     0.379974438535    -0.202104320249
    C            4.398281631053    -0.746146687678    -1.614214510392
    O           -2.599778658622    -2.611289422708    -0.050588004837
    O           -2.237344987794     1.827417261706     1.284563104864
    H            2.613920891329     2.561289857314     0.587335086935
    H            0.170840830244     2.779589531177     1.011812480178
    H           -0.155603762771    -2.477371679584    -0.324181492884
    H            2.013502769807    -1.560889402477    -0.514233575702
    H            4.047252893951    -1.755500503126    -1.388316949811
    H            3.870131851515    -0.353804463985    -2.486433297815
    H            5.467602530759    -0.792142923579    -1.833468958546

	Removing binary optimization data file.
	Cleaning optimization helper files.

    Psi4 stopped on: Tuesday, 22 June 2021 02:18AM
    Psi4 wall time for execution: 0:36:44.21

*** Psi4 exiting successfully. Buy a developer a beer!
