
    -----------------------------------------------------------------------
          Psi4: An Open-Source Ab Initio Electronic Structure Package
                               Psi4 1.3.2 release

                         Git: Rev {HEAD} ecbda83 


    R. M. Parrish, L. A. Burns, D. G. A. Smith, A. C. Simmonett,
    A. E. DePrince III, E. G. Hohenstein, U. Bozkaya, A. Yu. Sokolov,
    R. Di Remigio, R. M. Richard, J. F. Gonthier, A. M. James,
    H. R. McAlexander, A. Kumar, M. Saitow, X. Wang, B. P. Pritchard,
    P. Verma, H. F. Schaefer III, K. Patkowski, R. A. King, E. F. Valeev,
    F. A. Evangelista, J. M. Turney, T. D. Crawford, and C. D. Sherrill,
    J. Chem. Theory Comput. 13(7) pp 3185--3197 (2017).
    (doi: 10.1021/acs.jctc.7b00174)


                         Additional Contributions by
    P. Kraus, H. Kruse, M. H. Lechner, M. C. Schieber, R. A. Shaw,
    A. Alenaizan, R. Galvelis, Z. L. Glick, S. Lehtola, and J. P. Misiewicz

    -----------------------------------------------------------------------


    Psi4 started on: Tuesday, 22 June 2021 12:01AM

    Process ID: 18460
    Host:       cpu-spot-dy-c5n2xlarge-1
    PSIDATADIR: /fsx/users/francis/anaconda3/envs/poltype-dev/share/psi4
    Memory:     500.0 MiB
    Threads:    1
    
  ==> Input File <==

--------------------------------------------------------------------------
molecule { 
0 1
 N   -0.389452   -1.137136    0.684813
 C   -1.732451   -1.138128    0.955508
 C   -2.522727    0.137540    0.513162
 F   -3.513008   -0.269296   -0.352635
 F   -3.120888    0.663143    1.636466
 C   -1.709688    1.283011   -0.183948
 C   -0.256542    1.072674   -0.378888
 C    0.527033    2.070346   -0.997827
 C    1.902181    1.889750   -1.189507
 C    2.544211    0.692287   -0.774817
 C    1.756069   -0.301339   -0.144139
 C    0.374179   -0.125326    0.054372
 S    4.299377    0.454908   -0.990084
 C    4.732498   -1.226097   -0.457713
 O   -2.249288   -2.096544    1.511601
 O   -2.270849    2.311117   -0.550429
 H    2.466280    2.693802   -1.663033
 H    0.034136    2.986991   -1.323248
 H    0.061833   -1.986706    0.995077
 H    2.219584   -1.220968    0.208106
 H    4.558300   -1.325817    0.617934
 H    4.134158   -1.954086   -1.014063
 H    5.793090   -1.396192   -0.667671
}
set optking { 
  frozen_dihedral = ("
    11 10 13 14
    9 10 13 14
    21 14 13 10
  ")
}
set {
  geom_maxiter 400
  g_convergence GAU_LOOSE
  dynamic_level 1
}
memory 16GB
set_num_threads(8)
psi4_io.set_default_path("/scratch/Psi4-ligand")
for _ in range(1):
  try:
    set opt_coordinates both
    optimize('wb97x-d/6-31+G*')
    break
  except OptimizationConvergenceError:
    break
  else:
    try:
      set opt_coordinates cartesian
      optimize('wb97x-d/6-31+G*')
      break
    except OptimizationConvergenceError:
      pass
clean()
--------------------------------------------------------------------------

  Memory set to  14.901 GiB by Python driver.
  Threads set to 8 by Python driver.
gradient() will perform analytic gradient computation.

*** tstart() called on cpu-spot-dy-c5n2xlarge-1
*** at Tue Jun 22 00:01:25 2021

   => Loading Basis Set <=

    Name: 6-31+G*
    Role: ORBITAL
    Keyword: BASIS
    atoms 1             entry N          line   138 file /fsx/users/francis/anaconda3/envs/poltype-dev/share/psi4/basis/6-31pgs.gbs 
    atoms 2-3, 6-12, 14 entry C          line   119 file /fsx/users/francis/anaconda3/envs/poltype-dev/share/psi4/basis/6-31pgs.gbs 
    atoms 4-5           entry F          line   176 file /fsx/users/francis/anaconda3/envs/poltype-dev/share/psi4/basis/6-31pgs.gbs 
    atoms 13            entry S          line   344 file /fsx/users/francis/anaconda3/envs/poltype-dev/share/psi4/basis/6-31pgs.gbs 
    atoms 15-16         entry O          line   157 file /fsx/users/francis/anaconda3/envs/poltype-dev/share/psi4/basis/6-31pgs.gbs 
    atoms 17-23         entry H          line    46 file /fsx/users/francis/anaconda3/envs/poltype-dev/share/psi4/basis/6-31pgs.gbs 


         ---------------------------------------------------------
                                   SCF
               by Justin Turney, Rob Parrish, Andy Simmonett
                          and Daniel G. A. Smith
                              RKS Reference
                        8 Threads,  15258 MiB Core
         ---------------------------------------------------------

  ==> Geometry <==

    Molecular point group: c1
    Full point group: C1

    Geometry (in Angstrom), charge = 0, multiplicity = 1:

       Center              X                  Y                   Z               Mass       
    ------------   -----------------  -----------------  -----------------  -----------------
         N           -0.473681368393    -1.382271125473     0.752362657249    14.003074004430
         C           -1.816680368393    -1.383263125473     1.023057657249    12.000000000000
         C           -2.606956368393    -0.107595125473     0.580711657249    12.000000000000
         F           -3.597237368393    -0.514431125473    -0.285085342751    18.998403162730
         F           -3.205117368393     0.418007874527     1.704015657249    18.998403162730
         C           -1.793917368393     1.037875874527    -0.116398342751    12.000000000000
         C           -0.340771368393     0.827538874527    -0.311338342751    12.000000000000
         C            0.442803631607     1.825210874527    -0.930277342751    12.000000000000
         C            1.817951631607     1.644614874527    -1.121957342751    12.000000000000
         C            2.459981631607     0.447151874527    -0.707267342751    12.000000000000
         C            1.671839631607    -0.546474125473    -0.076589342751    12.000000000000
         C            0.289949631607    -0.370461125473     0.121921657249    12.000000000000
         S            4.215147631607     0.209772874527    -0.922534342751    31.972071174400
         C            4.648268631607    -1.471232125473    -0.390163342751    12.000000000000
         O           -2.333517368393    -2.341679125473     1.579150657249    15.994914619570
         O           -2.355078368393     2.065981874527    -0.482879342751    15.994914619570
         H            2.382050631607     2.448666874527    -1.595483342751     1.007825032230
         H           -0.050093368393     2.741855874527    -1.255698342751     1.007825032230
         H           -0.022396368393    -2.231841125473     1.062626657249     1.007825032230
         H            2.135354631607    -1.466103125473     0.275655657249     1.007825032230
         H            4.474070631607    -1.570952125473     0.685483657249     1.007825032230
         H            4.049928631607    -2.199221125473    -0.946513342751     1.007825032230
         H            5.708860631607    -1.641327125473    -0.600121342751     1.007825032230

  Running in c1 symmetry.

  Rotational constants: A =      0.03464  B =      0.00857  C =      0.00715 [cm^-1]
  Rotational constants: A =   1038.42622  B =    256.83511  C =    214.49918 [MHz]
  Nuclear repulsion = 1176.950035861639435

  Charge       = 0
  Multiplicity = 1
  Electrons    = 124
  Nalpha       = 62
  Nbeta        = 62

  ==> Algorithm <==

  SCF Algorithm Type is DF.
  DIIS enabled.
  MOM disabled.
  Fractional occupation disabled.
  Guess Type is SAD.
  Energy threshold   = 1.00e-08
  Density threshold  = 1.00e-08
  Integral threshold = 0.00e+00

  ==> Primary Basis <==

  Basis Set: 6-31+G*
    Blend: 6-31+G*
    Number of shells: 144
    Number of basis function: 322
    Number of Cartesian functions: 322
    Spherical Harmonics?: false
    Max angular momentum: 2

  ==> DFT Potential <==

   => Composite Functional: WB97X-D <= 

    wB97X-D Hyb-GGA Exchange-Correlation Functional

    J.-D. Chai and M. Head-Gordon, Phys. Chem. Chem. Phys. 10, 6615 (2008)

    Deriv               =              1
    GGA                 =           TRUE
    Meta                =          FALSE

    Exchange Hybrid     =           TRUE
    MP2 Hybrid          =          FALSE

   => Exchange-Correlation Functionals <=

    1.0000   wB97D range-separated functional

   => Exact (HF) Exchange <=

    0.7780            HF,LR [omega = 0.2000]
    0.2220               HF 

   => Molecular Quadrature <=

    Radial Scheme          =       TREUTLER
    Pruning Scheme         =           FLAT
    Nuclear Scheme         =       TREUTLER

    BS radius alpha        =              1
    Pruning alpha          =              1
    Radial Points          =             75
    Spherical Points       =            302
    Total Points           =         520849
    Total Blocks           =           3846
    Max Points             =            256
    Max Functions          =            286

   => WB97X-D: Empirical Dispersion <=

    Chai and Head-Gordon Dispersion Correction
    Chai, J.-D.; Head-Gordon, M. (2010), J. Chem. Phys., 132: 6615-6620

        s6 =       1.000000

   => Loading Basis Set <=

    Name: (6-31+G* AUX)
    Role: JKFIT
    Keyword: DF_BASIS_SCF
    atoms 1             entry N          line   252 file /fsx/users/francis/anaconda3/envs/poltype-dev/share/psi4/basis/heavy-aug-cc-pvdz-jkfit.gbs 
    atoms 2-3, 6-12, 14 entry C          line   194 file /fsx/users/francis/anaconda3/envs/poltype-dev/share/psi4/basis/heavy-aug-cc-pvdz-jkfit.gbs 
    atoms 4-5           entry F          line   368 file /fsx/users/francis/anaconda3/envs/poltype-dev/share/psi4/basis/heavy-aug-cc-pvdz-jkfit.gbs 
    atoms 13            entry S          line   730 file /fsx/users/francis/anaconda3/envs/poltype-dev/share/psi4/basis/heavy-aug-cc-pvdz-jkfit.gbs 
    atoms 15-16         entry O          line   310 file /fsx/users/francis/anaconda3/envs/poltype-dev/share/psi4/basis/heavy-aug-cc-pvdz-jkfit.gbs 
    atoms 17-23         entry H          line   116 file /fsx/users/francis/anaconda3/envs/poltype-dev/share/psi4/basis/heavy-aug-cc-pvdz-jkfit.gbs 

  ==> Pre-Iterations <==

   -------------------------------------------------------
    Irrep   Nso     Nmo     Nalpha   Nbeta   Ndocc  Nsocc
   -------------------------------------------------------
     A        322     322       0       0       0       0
   -------------------------------------------------------
    Total     322     322      62      62      62       0
   -------------------------------------------------------

  ==> Integral Setup <==

  ==> DiskDFJK: Density-Fitted J/K Matrices <==

    J tasked:                  Yes
    K tasked:                  Yes
    wK tasked:                 Yes
    Omega:               2.000E-01
    OpenMP threads:              8
    Integrals threads:           8
    Memory [MiB]:             8432
    Algorithm:                Core
    Integral Cache:           NONE
    Schwarz Cutoff:          1E-12
    Fitting Condition:       1E-10

   => Auxiliary Basis Set <=

  Basis Set: (6-31+G* AUX)
    Blend: HEAVY-AUG-CC-PVDZ-JKFIT
    Number of shells: 523
    Number of basis function: 1840
    Number of Cartesian functions: 1840
    Spherical Harmonics?: false
    Max angular momentum: 3

  Cached 100.0% of DFT collocation blocks in 2.941 [GiB].

  Minimum eigenvalue in the overlap matrix is 3.7072597409E-07.
  Using Symmetric Orthogonalization.

  SCF Guess: Superposition of Atomic Densities via on-the-fly atomic UHF.

  ==> Iterations <==

                           Total Energy        Delta E     RMS |[F,P]|

   @DF-RKS iter SAD: -1187.19728549768661   -1.18720e+03   0.00000e+00 
   @DF-RKS iter   1: -1187.53595261111923   -3.38667e-01   3.39828e-03 DIIS
   @DF-RKS iter   2: -1187.54789471124127   -1.19421e-02   3.70209e-03 DIIS
   @DF-RKS iter   3: -1188.08548178388287   -5.37587e-01   7.84602e-04 DIIS
   @DF-RKS iter   4: -1188.10966496949754   -2.41832e-02   2.66737e-04 DIIS
   @DF-RKS iter   5: -1188.11316898795053   -3.50402e-03   7.29077e-05 DIIS
   @DF-RKS iter   6: -1188.11357247204910   -4.03484e-04   2.43502e-05 DIIS
   @DF-RKS iter   7: -1188.11363404746407   -6.15754e-05   1.02032e-05 DIIS
   @DF-RKS iter   8: -1188.11365066734356   -1.66199e-05   3.94124e-06 DIIS
   @DF-RKS iter   9: -1188.11365343989905   -2.77256e-06   2.19496e-06 DIIS
   @DF-RKS iter  10: -1188.11365380859752   -3.68698e-07   7.34101e-07 DIIS
   @DF-RKS iter  11: -1188.11365386237435   -5.37768e-08   3.24466e-07 DIIS
   @DF-RKS iter  12: -1188.11365387349974   -1.11254e-08   1.56948e-07 DIIS
   @DF-RKS iter  13: -1188.11365387644855   -2.94881e-09   5.80927e-08 DIIS
   @DF-RKS iter  14: -1188.11365387678984   -3.41288e-10   2.64545e-08 DIIS
   @DF-RKS iter  15: -1188.11365387686260   -7.27596e-11   1.15043e-08 DIIS
   @DF-RKS iter  16: -1188.11365387687397   -1.13687e-11   6.98003e-09 DIIS
  Energy and wave function converged.


  ==> Post-Iterations <==

    Orbital Energies [Eh]
    ---------------------

    Doubly Occupied:                                                      

       1A    -89.086478     2A    -24.873928     3A    -24.873761  
       4A    -19.305175     5A    -19.294922     6A    -14.543993  
       7A    -10.511048     8A    -10.459571     9A    -10.435479  
      10A    -10.412100    11A    -10.395440    12A    -10.363546  
      13A    -10.354513    14A    -10.354429    15A    -10.353009  
      16A    -10.346426    17A     -8.103586    18A     -6.054370  
      19A     -6.049715    20A     -6.043778    21A     -1.382225  
      22A     -1.325887    23A     -1.190240    24A     -1.174910  
      25A     -1.093093    26A     -0.999191    27A     -0.941244  
      28A     -0.903421    29A     -0.888863    30A     -0.868716  
      31A     -0.798621    32A     -0.767598    33A     -0.752205  
      34A     -0.742050    35A     -0.693888    36A     -0.679008  
      37A     -0.666477    38A     -0.645929    39A     -0.627557  
      40A     -0.590827    41A     -0.581655    42A     -0.565997  
      43A     -0.564751    44A     -0.560192    45A     -0.555936  
      46A     -0.550407    47A     -0.549884    48A     -0.534617  
      49A     -0.530380    50A     -0.516919    51A     -0.507241  
      52A     -0.503836    53A     -0.486983    54A     -0.485700  
      55A     -0.472400    56A     -0.440377    57A     -0.427737  
      58A     -0.395788    59A     -0.393922    60A     -0.368094  
      61A     -0.342744    62A     -0.318095  

    Virtual:                                                              

      63A     -0.046999    64A      0.011689    65A      0.032921  
      66A      0.050565    67A      0.055661    68A      0.060284  
      69A      0.063883    70A      0.074760    71A      0.080455  
      72A      0.087714    73A      0.091111    74A      0.098667  
      75A      0.105131    76A      0.110703    77A      0.112818  
      78A      0.116983    79A      0.120445    80A      0.128499  
      81A      0.131414    82A      0.133844    83A      0.143237  
      84A      0.149244    85A      0.155047    86A      0.157271  
      87A      0.165699    88A      0.171590    89A      0.177914  
      90A      0.178610    91A      0.184840    92A      0.188283  
      93A      0.193876    94A      0.200904    95A      0.201954  
      96A      0.208655    97A      0.209418    98A      0.221618  
      99A      0.224739   100A      0.225075   101A      0.229446  
     102A      0.234702   103A      0.240604   104A      0.244079  
     105A      0.247598   106A      0.249954   107A      0.252555  
     108A      0.254367   109A      0.263590   110A      0.274728  
     111A      0.278741   112A      0.282084   113A      0.285098  
     114A      0.288681   115A      0.299512   116A      0.300147  
     117A      0.305448   118A      0.312139   119A      0.314856  
     120A      0.319778   121A      0.323365   122A      0.332429  
     123A      0.336775   124A      0.347038   125A      0.354412  
     126A      0.359317   127A      0.368114   128A      0.373838  
     129A      0.380193   130A      0.384079   131A      0.391386  
     132A      0.392062   133A      0.395491   134A      0.407254  
     135A      0.410497   136A      0.420578   137A      0.421843  
     138A      0.432751   139A      0.440631   140A      0.447337  
     141A      0.458895   142A      0.466212   143A      0.476649  
     144A      0.496148   145A      0.501223   146A      0.510973  
     147A      0.527348   148A      0.539302   149A      0.546759  
     150A      0.548566   151A      0.564558   152A      0.579995  
     153A      0.590188   154A      0.594028   155A      0.602965  
     156A      0.631905   157A      0.654655   158A      0.663500  
     159A      0.679159   160A      0.685325   161A      0.727646  
     162A      0.735850   163A      0.751579   164A      0.754329  
     165A      0.763669   166A      0.769018   167A      0.786956  
     168A      0.798802   169A      0.810605   170A      0.822229  
     171A      0.825691   172A      0.843336   173A      0.861054  
     174A      0.877946   175A      0.880517   176A      0.893539  
     177A      0.912342   178A      0.921972   179A      0.926149  
     180A      0.930821   181A      0.963549   182A      0.970550  
     183A      0.980849   184A      0.987468   185A      1.007791  
     186A      1.026382   187A      1.040826   188A      1.055838  
     189A      1.059159   190A      1.080902   191A      1.085790  
     192A      1.096862   193A      1.110629   194A      1.152079  
     195A      1.174081   196A      1.181026   197A      1.199050  
     198A      1.208240   199A      1.213994   200A      1.218208  
     201A      1.231297   202A      1.248847   203A      1.279479  
     204A      1.280544   205A      1.289909   206A      1.321779  
     207A      1.322353   208A      1.334371   209A      1.341326  
     210A      1.380374   211A      1.405537   212A      1.409788  
     213A      1.416742   214A      1.419419   215A      1.444083  
     216A      1.451083   217A      1.461038   218A      1.465690  
     219A      1.470105   220A      1.485749   221A      1.510997  
     222A      1.521968   223A      1.527274   224A      1.531080  
     225A      1.558691   226A      1.588220   227A      1.622169  
     228A      1.648278   229A      1.662841   230A      1.669520  
     231A      1.712682   232A      1.748966   233A      1.752832  
     234A      1.758010   235A      1.759366   236A      1.760590  
     237A      1.779711   238A      1.780479   239A      1.787922  
     240A      1.820722   241A      1.838007   242A      1.861548  
     243A      1.875153   244A      1.895858   245A      1.903678  
     246A      1.910963   247A      1.918279   248A      1.946050  
     249A      1.962500   250A      1.965940   251A      1.970805  
     252A      2.006610   253A      2.037236   254A      2.048520  
     255A      2.057202   256A      2.057921   257A      2.083900  
     258A      2.089603   259A      2.097674   260A      2.112666  
     261A      2.146355   262A      2.151704   263A      2.168906  
     264A      2.204539   265A      2.205789   266A      2.213371  
     267A      2.248430   268A      2.251001   269A      2.259997  
     270A      2.267118   271A      2.301304   272A      2.305744  
     273A      2.309857   274A      2.345054   275A      2.348654  
     276A      2.369263   277A      2.380064   278A      2.401967  
     279A      2.463604   280A      2.466898   281A      2.512663  
     282A      2.517996   283A      2.572453   284A      2.625100  
     285A      2.656103   286A      2.673429   287A      2.704703  
     288A      2.720319   289A      2.735322   290A      2.769231  
     291A      2.774728   292A      2.820761   293A      2.836911  
     294A      2.846922   295A      2.897459   296A      2.947432  
     297A      2.961958   298A      3.029033   299A      3.123835  
     300A      3.154086   301A      3.209770   302A      3.235609  
     303A      3.337217   304A      3.377868   305A      3.462449  
     306A      3.488675   307A      4.031781   308A      4.279480  
     309A      4.332710   310A      4.334253   311A      4.360667  
     312A      4.373981   313A      4.414373   314A      4.471823  
     315A      4.496103   316A      4.520210   317A      4.583034  
     318A      4.778166   319A      4.835937   320A      5.117101  
     321A      5.696056   322A      7.145244  

    Final Occupation by Irrep:
              A 
    DOCC [    62 ]

  @DF-RKS Final Energy: -1188.11365387687397

   => Energetics <=

    Nuclear Repulsion Energy =           1176.9500358616394351
    One-Electron Energy =               -3967.8659925965857838
    Two-Electron Energy =                1692.2520285580624204
    DFT Exchange-Correlation Energy =     -89.4360722942105326
    Empirical Dispersion Energy =          -0.0136534057796424
    VV10 Nonlocal Energy =                  0.0000000000000000
    Total Energy =                      -1188.1136538768739683

Computation Completed


Properties will be evaluated at   0.000000,   0.000000,   0.000000 [a0]

Properties computed using the SCF density matrix

  Nuclear Dipole Moment: [e a0]
     X:    24.0170      Y:    -3.5747      Z:    -3.5854

  Electronic Dipole Moment: [e a0]
     X:   -20.9764      Y:     2.8285      Z:     3.2663

  Dipole Moment: [e a0]
     X:     3.0406      Y:    -0.7462      Z:    -0.3191     Total:     3.1471

  Dipole Moment: [D]
     X:     7.7284      Y:    -1.8967      Z:    -0.8112     Total:     7.9990


*** tstop() called on cpu-spot-dy-c5n2xlarge-1 at Tue Jun 22 00:02:41 2021
Module time:
	user time   =     572.63 seconds =       9.54 minutes
	system time =      10.14 seconds =       0.17 minutes
	total time  =         76 seconds =       1.27 minutes
Total time:
	user time   =     572.63 seconds =       9.54 minutes
	system time =      10.14 seconds =       0.17 minutes
	total time  =         76 seconds =       1.27 minutes

*** tstart() called on cpu-spot-dy-c5n2xlarge-1
*** at Tue Jun 22 00:02:41 2021


         ------------------------------------------------------------
                                   SCF GRAD                          
                          Rob Parrish, Justin Turney,                
                       Andy Simmonett, and Alex Sokolov              
         ------------------------------------------------------------

  ==> Geometry <==

    Molecular point group: c1
    Full point group: C1

    Geometry (in Angstrom), charge = 0, multiplicity = 1:

       Center              X                  Y                   Z               Mass       
    ------------   -----------------  -----------------  -----------------  -----------------
         N           -0.473681368393    -1.382271125473     0.752362657249    14.003074004430
         C           -1.816680368393    -1.383263125473     1.023057657249    12.000000000000
         C           -2.606956368393    -0.107595125473     0.580711657249    12.000000000000
         F           -3.597237368393    -0.514431125473    -0.285085342751    18.998403162730
         F           -3.205117368393     0.418007874527     1.704015657249    18.998403162730
         C           -1.793917368393     1.037875874527    -0.116398342751    12.000000000000
         C           -0.340771368393     0.827538874527    -0.311338342751    12.000000000000
         C            0.442803631607     1.825210874527    -0.930277342751    12.000000000000
         C            1.817951631607     1.644614874527    -1.121957342751    12.000000000000
         C            2.459981631607     0.447151874527    -0.707267342751    12.000000000000
         C            1.671839631607    -0.546474125473    -0.076589342751    12.000000000000
         C            0.289949631607    -0.370461125473     0.121921657249    12.000000000000
         S            4.215147631607     0.209772874527    -0.922534342751    31.972071174400
         C            4.648268631607    -1.471232125473    -0.390163342751    12.000000000000
         O           -2.333517368393    -2.341679125473     1.579150657249    15.994914619570
         O           -2.355078368393     2.065981874527    -0.482879342751    15.994914619570
         H            2.382050631607     2.448666874527    -1.595483342751     1.007825032230
         H           -0.050093368393     2.741855874527    -1.255698342751     1.007825032230
         H           -0.022396368393    -2.231841125473     1.062626657249     1.007825032230
         H            2.135354631607    -1.466103125473     0.275655657249     1.007825032230
         H            4.474070631607    -1.570952125473     0.685483657249     1.007825032230
         H            4.049928631607    -2.199221125473    -0.946513342751     1.007825032230
         H            5.708860631607    -1.641327125473    -0.600121342751     1.007825032230

  Nuclear repulsion = 1176.950035861639435

  ==> Basis Set <==

  Basis Set: 6-31+G*
    Blend: 6-31+G*
    Number of shells: 144
    Number of basis function: 322
    Number of Cartesian functions: 322
    Spherical Harmonics?: false
    Max angular momentum: 2

  ==> DFJKGrad: Density-Fitted SCF Gradients <==

    Gradient:                    1
    J tasked:                  Yes
    K tasked:                  Yes
    wK tasked:                 Yes
    Omega:               2.000E-01
    OpenMP threads:              8
    Integrals threads:           8
    Memory [MiB]:            11444
    Schwarz Cutoff:          0E+00
    Fitting Condition:       1E-10

   => Auxiliary Basis Set <=

  Basis Set: (6-31+G* AUX)
    Blend: HEAVY-AUG-CC-PVDZ-JKFIT
    Number of shells: 523
    Number of basis function: 1840
    Number of Cartesian functions: 1840
    Spherical Harmonics?: false
    Max angular momentum: 3

  ==> DFT Potential <==

   => Composite Functional: WB97X-D <= 

    wB97X-D Hyb-GGA Exchange-Correlation Functional

    J.-D. Chai and M. Head-Gordon, Phys. Chem. Chem. Phys. 10, 6615 (2008)

    Deriv               =              1
    GGA                 =           TRUE
    Meta                =          FALSE

    Exchange Hybrid     =           TRUE
    MP2 Hybrid          =          FALSE

   => Exchange-Correlation Functionals <=

    1.0000   wB97D range-separated functional

   => Exact (HF) Exchange <=

    0.7780            HF,LR [omega = 0.2000]
    0.2220               HF 

   => Molecular Quadrature <=

    Radial Scheme          =       TREUTLER
    Pruning Scheme         =           FLAT
    Nuclear Scheme         =       TREUTLER

    BS radius alpha        =              1
    Pruning alpha          =              1
    Radial Points          =             75
    Spherical Points       =            302
    Total Points           =         520849
    Total Blocks           =           3846
    Max Points             =            256
    Max Functions          =            286


  -Total Gradient:
     Atom            X                  Y                   Z
    ------   -----------------  -----------------  -----------------
       1       -0.005745017591    -0.011755702708     0.006583227771
       2        0.003791958785     0.012092478856    -0.006617643902
       3        0.013170660378    -0.001124341422    -0.002287655045
       4       -0.012980607150    -0.005296243816    -0.012009504017
       5       -0.007645119254     0.007479393283     0.015196460394
       6       -0.001053813782    -0.020782311394     0.010055064577
       7       -0.002402625112     0.008511983415    -0.003519588418
       8       -0.010311045022     0.011670171402    -0.003501133866
       9        0.001638517611    -0.000131592230     0.000143411302
      10        0.013942029264     0.015820915568    -0.012300330325
      11        0.004293581946    -0.004592057185     0.001572727710
      12        0.002457757395    -0.006522495880     0.003180160116
      13       -0.001308662430    -0.017705417062     0.009019135871
      14        0.016511771918    -0.000124236302    -0.004231475214
      15       -0.001041130183    -0.021003941678     0.010157707334
      16       -0.004839168532     0.026870071220    -0.011577847931
      17       -0.000573320009     0.004111117716    -0.001089574347
      18       -0.002334336241     0.003147863257    -0.001126116783
      19       -0.004304253209     0.000592334463     0.000631744985
      20        0.001537161842    -0.001197460225     0.000714040412
      21       -0.001544028776     0.003365298716     0.000606126573
      22       -0.002222929447     0.002149345938    -0.001419410729
      23        0.002144854780    -0.005566299072     0.001638191924


*** tstop() called on cpu-spot-dy-c5n2xlarge-1 at Tue Jun 22 00:03:05 2021
Module time:
	user time   =     149.20 seconds =       2.49 minutes
	system time =       3.76 seconds =       0.06 minutes
	total time  =         24 seconds =       0.40 minutes
Total time:
	user time   =     721.84 seconds =      12.03 minutes
	system time =      13.90 seconds =       0.23 minutes
	total time  =        100 seconds =       1.67 minutes

			-----------------------------------------
			 OPTKING 2.0: for geometry optimizations 
			  - R.A. King,  Bethel University        
			-----------------------------------------
	At level 1: Red. Int., RFO, no backsteps, dynamic trust

	Internal coordinates to be generated automatically.
	Detected frag 1 with atoms:  1 2 3 4 5 6 7 8 9 10 11 12 13 14 15 16 17 18 19 20
	 21 22 23
	---Fragment 1 Bond Connectivity---
	 1 : 2 12 19
	 2 : 1 3 15
	 3 : 2 4 5 6
	 4 : 3
	 5 : 3
	 6 : 3 7 16
	 7 : 6 8 12
	 8 : 7 9 18
	 9 : 8 10 17
	 10 : 9 11 13
	 11 : 10 12 20
	 12 : 1 7 11
	 13 : 10 14
	 14 : 13 21 22 23
	 15 : 2
	 16 : 6
	 17 : 9
	 18 : 8
	 19 : 1
	 20 : 11
	 21 : 14
	 22 : 14
	 23 : 14

	Assuming in current code that numbering for constraints corresponds to unified fragment.
	Frozen dihedral atom list: 
	    11    10    13    14
	     9    10    13    14
	    21    14    13    10
	---Fragment 1 Geometry and Gradient---
	 N          -0.8951280570       -2.6121138583        1.4217593692
	 C          -3.4330283538       -2.6139884666        1.9332987828
	 C          -4.9264335573       -0.2033253196        1.0973859901
	 F          -6.7977934345       -0.9721339376       -0.5387332202
	 F          -6.0567940262        0.7899204011        3.2201229057
	 C          -3.3900125180        1.9613011551       -0.2199609893
	 C          -0.6439645577        1.5638218310       -0.5883442002
	 C           0.8367775911        3.4491486741       -1.7579693985
	 C           3.4354306931        3.1078716947       -2.1201921022
	 C           4.6486915574        0.8449945793       -1.3365415753
	 C           3.1593190294       -1.0326864318       -0.1447328819
	 C           0.5479253939       -0.7000700673        0.2303985410
	 S           7.9654746021        0.3964132814       -1.7433372491
	 C           8.7839546713       -2.7802257841       -0.7373018620
	 O          -4.4097087353       -4.4251322208        2.9841622530
	 O          -4.4504531203        3.9041399230       -0.9125097094
	 H           4.5014233107        4.6273097653       -3.0150265555
	 H          -0.0946627470        5.1813566783       -2.3729259640
	 H          -0.0423230025       -4.2175684827        2.0080733558
	 H           4.0352354345       -2.7705333788        0.5209136971
	 H           8.4547681597       -2.9686692734        1.2953763757
	 H           7.6532559414       -4.1559256165       -1.7886509919
	 H          10.7881830821       -3.1016587494       -1.1340649798
	            -0.0057450176       -0.0117557027        0.0065832278
	             0.0037919588        0.0120924789       -0.0066176439
	             0.0131706604       -0.0011243414       -0.0022876550
	            -0.0129806071       -0.0052962438       -0.0120095040
	            -0.0076451193        0.0074793933        0.0151964604
	            -0.0010538138       -0.0207823114        0.0100550646
	            -0.0024026251        0.0085119834       -0.0035195884
	            -0.0103110450        0.0116701714       -0.0035011339
	             0.0016385176       -0.0001315922        0.0001434113
	             0.0139420293        0.0158209156       -0.0123003303
	             0.0042935819       -0.0045920572        0.0015727277
	             0.0024577574       -0.0065224959        0.0031801601
	            -0.0013086624       -0.0177054171        0.0090191359
	             0.0165117719       -0.0001242363       -0.0042314752
	            -0.0010411302       -0.0210039417        0.0101577073
	            -0.0048391685        0.0268700712       -0.0115778479
	            -0.0005733200        0.0041111177       -0.0010895743
	            -0.0023343362        0.0031478633       -0.0011261168
	            -0.0043042532        0.0005923345        0.0006317450
	             0.0015371618       -0.0011974602        0.0007140404
	            -0.0015440288        0.0033652987        0.0006061266
	            -0.0022229294        0.0021493459       -0.0014194107
	             0.0021448548       -0.0055662991        0.0016381919

	Previous optimization step data not found.  Starting new optimization.

	---Fragment 1 Intrafragment Coordinates---
	 - Coordinate -           - BOHR/RAD -       - ANG/DEG -
	 R(1,2)           =         2.588941	       1.370008
	 R(1,12)          =         2.675379	       1.415750
	 R(1,19)          =         1.910111	       1.010787
	 R(2,3)           =         2.956401	       1.564460
	 R(2,15)          =         2.310511	       1.222670
	 R(3,4)           =         2.601911	       1.376872
	 R(3,5)           =         2.601973	       1.376905
	 R(3,6)           =         2.963377	       1.568151
	 R(6,7)           =         2.799013	       1.481174
	 R(6,16)          =         2.319220	       1.227278
	 R(7,8)           =         2.667410	       1.411533
	 R(7,12)          =         2.686289	       1.421523
	 R(8,9)           =         2.645879	       1.400139
	 R(8,18)          =         2.060655	       1.090451
	 R(9,10)          =         2.684534	       1.420594
	 R(9,17)          =         2.060524	       1.090383
	 R(10,11)         =         2.676626	       1.416409
	 R(10,13)         =         3.371611	       1.784179
	 R(11,12)         =         2.659085	       1.407127
	 R(11,20)         =         2.056800	       1.088412
	 R(13,14)         =         3.431188	       1.815707
	 R(14,21)         =         2.067766	       1.094215
	 R(14,22)         =         2.067937	       1.094305
	 R(14,23)         =         2.068253	       1.094472
	 B(1,2,3)         =         2.024978	     116.022679
	 B(1,2,15)        =         2.099960	     120.318858
	 B(1,12,7)        =         2.092901	     119.914392
	 B(1,12,11)       =         2.098017	     120.207505
	 B(2,1,12)        =         2.236042	     128.115786
	 B(2,1,19)        =         1.956713	     112.111391
	 B(2,3,4)         =         1.875670	     107.467952
	 B(2,3,5)         =         1.875530	     107.459957
	 B(2,3,6)         =         2.048129	     117.349152
	 B(3,2,15)        =         2.158247	     123.658461
	 B(3,6,7)         =         2.052665	     117.609020
	 B(3,6,16)        =         2.103188	     120.503813
	 B(4,3,5)         =         1.889506	     108.260732
	 B(4,3,6)         =         1.885145	     108.010829
	 B(5,3,6)         =         1.885006	     108.002893
	 B(6,7,8)         =         2.096658	     120.129658
	 B(6,7,12)        =         2.111643	     120.988233
	 B(7,6,16)        =         2.127332	     121.887150
	 B(7,8,9)         =         2.110729	     120.935866
	 B(7,8,18)        =         2.064713	     118.299354
	 B(7,12,11)       =         2.092267	     119.878091
	 B(8,7,12)        =         2.074876	     118.881628
	 B(8,9,10)        =         2.109053	     120.839832
	 B(8,9,17)        =         2.062860	     118.193166
	 B(9,8,18)        =         2.107743	     120.764776
	 B(9,10,11)       =         2.059889	     118.022951
	 B(9,10,13)       =         2.119433	     121.434549
	 B(10,9,17)       =         2.111269	     120.966825
	 B(10,11,12)      =         2.119431	     121.434471
	 B(10,11,20)      =         2.094235	     119.990841
	 B(10,13,14)      =         1.899126	     108.811919
	 B(11,10,13)      =         2.103399	     120.515886
	 B(12,1,19)       =         2.090430	     119.772812
	 B(12,11,20)      =         2.069467	     118.571715
	 B(13,14,21)      =         1.912004	     109.549751
	 B(13,14,22)      =         1.913893	     109.657975
	 B(13,14,23)      =         1.895253	     108.589981
	 B(21,14,22)      =         1.930615	     110.616085
	 B(21,14,23)      =         1.905710	     109.189116
	 B(22,14,23)      =         1.905968	     109.203945
	 D(1,2,3,4)       =         2.122554	     121.613373
	 D(1,2,3,5)       =        -2.130521	    -122.069875
	 D(1,2,3,6)       =        -0.004131	      -0.236709
	 D(1,12,7,6)      =        -0.002041	      -0.116944
	 D(1,12,7,8)      =         3.135153	     179.631048
	 D(1,12,11,10)    =         3.138802	     179.840128
	 D(1,12,11,20)    =        -0.013743	      -0.787444
	 D(2,1,12,7)      =         0.003148	       0.180349
	 D(2,1,12,11)     =        -3.139105	    -179.857443
	 D(2,3,6,7)       =         0.004973	       0.284907
	 D(2,3,6,16)      =        -3.137427	    -179.761328
	 D(3,2,1,12)      =         0.000148	       0.008470
	 D(3,2,1,19)      =         3.141047	     179.968714
	 D(3,6,7,8)       =        -3.139089	    -179.856536
	 D(3,6,7,12)      =        -0.001949	      -0.111670
	 D(4,3,2,15)      =        -1.019297	     -58.401415
	 D(4,3,6,7)       =        -2.116807	    -121.284090
	 D(4,3,6,16)      =         1.023979	      58.669675
	 D(5,3,2,15)      =         1.010813	      57.915337
	 D(5,3,6,7)       =         2.126455	     121.836906
	 D(5,3,6,16)      =        -1.015944	     -58.209329
	 D(6,3,2,15)      =         3.137203	     179.748503
	 D(6,7,8,9)       =         3.140604	     179.943377
	 D(6,7,8,18)      =        -0.000591	      -0.033876
	 D(6,7,12,11)     =         3.140209	     179.920722
	 D(7,8,9,10)      =         0.008313	       0.476291
	 D(7,8,9,17)      =        -3.130631	    -179.371954
	 D(7,12,1,19)     =        -3.137704	    -179.777218
	 D(7,12,11,10)    =        -0.003450	      -0.197650
	 D(7,12,11,20)    =         3.127190	     179.174778
	 D(8,7,6,16)      =         0.003323	       0.190380
	 D(8,7,12,11)     =        -0.005782	      -0.331286
	 D(8,9,10,11)     =        -0.017128	      -0.981367
	 D(8,9,10,13)     =        -3.126125	    -179.113780
	 D(9,8,7,12)      =         0.003371	       0.193165
	 D(9,10,11,12)    =         0.014741	       0.844591
	 D(9,10,11,20)    =        -3.115745	    -178.519059
	*D(9,10,13,14)    =        -3.070562	    -175.930270
	 D(10,9,8,18)     =        -3.133687	    -179.547017
	*D(10,13,14,21)   =        -1.141855	     -65.423493
	 D(10,13,14,22)   =         0.980033	      56.151780
	 D(10,13,14,23)   =         3.061391	     175.404757
	 D(11,10,9,17)    =         3.121742	     178.862649
	*D(11,10,13,14)   =         0.104431	       5.983447
	 D(11,12,1,19)    =         0.003229	       0.184990
	 D(12,1,2,15)     =        -3.141196	    -179.977271
	 D(12,7,6,16)     =         3.140462	     179.935247
	 D(12,7,8,18)     =        -3.137824	    -179.784088
	 D(12,11,10,13)   =         3.124050	     178.994899
	 D(13,10,9,17)    =         0.012745	       0.730237
	 D(13,10,11,20)   =        -0.006436	      -0.368751
	 D(15,2,1,19)     =        -0.000297	      -0.017027
	 D(17,9,8,18)     =         0.010555	       0.604737

	Current energy   :     -1188.1136538769

	Generating empirical Hessian (Schlegel '84) for each fragment.
	Taking RFO optimization step.
	Going to follow RFO solution 1.
	Using RFO vector 1.
	Norm of target step-size    0.24577
	Projected energy change by RFO approximation:        -0.0167274910

	Back-transformation to cartesian coordinates...
	Could not converge backtransformation.
	Using first guess instead.

	Back-transformation to cartesian coordinates to adjust frozen coordinates...
	Successfully converged to displaced geometry.

	--- Internal Coordinate Step in ANG or DEG, aJ/ANG or AJ/DEG ---
	 ---------------------------------------------------------------------------
	   Coordinate                Previous        Force       Change         New 
	   ----------                --------       ------       ------       ------
	    1 R(1,2)          =      1.370008    -0.009128    -0.000188     1.369821
	    2 R(1,12)         =      1.415750    -0.131738    -0.006527     1.409223
	    3 R(1,19)         =      1.010787     0.018494     0.009926     1.020713
	    4 R(2,3)          =      1.564460    -0.096091    -0.010657     1.553803
	    5 R(2,15)         =      1.222670    -0.177553     0.001075     1.223744
	    6 R(3,4)          =      1.376872    -0.152263    -0.008874     1.367998
	    7 R(3,5)          =      1.376905    -0.153286    -0.009540     1.367365
	    8 R(3,6)          =      1.568151    -0.090978    -0.005883     1.562269
	    9 R(6,7)          =      1.481174    -0.078438    -0.013914     1.467260
	   10 R(6,16)         =      1.227278    -0.232324    -0.006705     1.220573
	   11 R(7,8)          =      1.411533    -0.089057    -0.000278     1.411255
	   12 R(7,12)         =      1.421523    -0.129569    -0.009245     1.412278
	   13 R(8,9)          =      1.400139    -0.153475    -0.020612     1.379527
	   14 R(8,18)         =      1.090451    -0.033436     0.002019     1.092470
	   15 R(9,10)         =      1.420594    -0.139479    -0.009675     1.410919
	   16 R(9,17)         =      1.090383    -0.026180     0.005591     1.095974
	   17 R(10,11)        =      1.416409    -0.123168    -0.004924     1.411485
	   18 R(10,13)        =      1.784179    -0.121985    -0.024123     1.760056
	   19 R(11,12)        =      1.407127    -0.131173    -0.017894     1.389233
	   20 R(11,20)        =      1.088412    -0.015472     0.005552     1.093964
	   21 R(13,14)        =      1.815707    -0.021990     0.016600     1.832307
	   22 R(14,21)        =      1.094215    -0.004517     0.010555     1.104769
	   23 R(14,22)        =      1.094305    -0.004380     0.010216     1.104521
	   24 R(14,23)        =      1.094472    -0.021244    -0.003492     1.090980
	   25 B(1,2,3)        =    116.022679    -0.000082    -0.491359   115.531321
	   26 B(1,2,15)       =    120.318858     0.000834     2.317797   122.636655
	   27 B(1,12,7)       =    119.914392     0.000260     0.944936   120.859329
	   28 B(1,12,11)      =    120.207505    -0.000403    -1.136139   119.071366
	   29 B(2,1,12)       =    128.115786    -0.000196    -0.704863   127.410922
	   30 B(2,1,19)       =    112.111391     0.000377     1.130071   113.241462
	   31 B(2,3,4)        =    107.467952    -0.000036    -0.471574   106.996378
	   32 B(2,3,5)        =    107.459957    -0.000037    -0.440839   107.019118
	   33 B(2,3,6)        =    117.349152     0.000068     0.868835   118.217987
	   34 B(3,2,15)       =    123.658461    -0.000752    -1.826473   121.831988
	   35 B(3,6,7)        =    117.609020    -0.000132    -0.404468   117.204552
	   36 B(3,6,16)       =    120.503813    -0.000745    -1.747648   118.756166
	   37 B(4,3,5)        =    108.260732    -0.000021     0.255947   108.516679
	   38 B(4,3,6)        =    108.010829     0.000008    -0.117096   107.893733
	   39 B(5,3,6)        =    108.002893     0.000012    -0.112093   107.890800
	   40 B(6,7,8)        =    120.129658    -0.000021    -0.073273   120.056385
	   41 B(6,7,12)       =    120.988233     0.000082    -0.213255   120.774979
	   42 B(7,6,16)       =    121.887150     0.000877     2.152130   124.039280
	   43 B(7,8,9)        =    120.935866     0.000120     0.274799   121.210665
	   44 B(7,8,18)       =    118.299354    -0.000012     0.433618   118.732971
	   45 B(7,12,11)      =    119.878091     0.000143     0.190856   120.068948
	   46 B(8,7,12)       =    118.881628    -0.000061     0.286775   119.168403
	   47 B(8,9,10)       =    120.839832    -0.000355    -1.446841   119.392991
	   48 B(8,9,17)       =    118.193166     0.000400     1.424079   119.617245
	   49 B(9,8,18)       =    120.764776    -0.000108    -0.708554   120.056222
	   50 B(9,10,11)      =    118.022951     0.000577     2.093048   120.115999
	   51 B(9,10,13)      =    121.434549    -0.001346    -4.198258   117.236291
	   52 B(10,9,17)      =    120.966825    -0.000045     0.022871   120.989696
	   53 B(10,11,12)     =    121.434471    -0.000423    -1.397609   120.036862
	   54 B(10,11,20)     =    119.990841     0.000266     1.292780   121.283621
	   55 B(10,13,14)     =    108.811919    -0.002405    -7.083448   101.728472
	   56 B(11,10,13)     =    120.515886     0.000768     2.104153   122.620040
	   57 B(12,1,19)      =    119.772812    -0.000180    -0.425201   119.347610
	   58 B(12,11,20)     =    118.571715     0.000157     0.107294   118.679008
	   59 B(13,14,21)     =    109.549751     0.000515     2.458353   112.008105
	   60 B(13,14,22)     =    109.657975     0.000410     2.057626   111.715602
	   61 B(13,14,23)     =    108.589981    -0.000825    -4.135073   104.454909
	   62 B(21,14,22)     =    110.616085    -0.000232    -0.117106   110.498979
	   63 B(21,14,23)     =    109.189116     0.000102     0.016858   109.205974
	   64 B(22,14,23)     =    109.203945     0.000014    -0.486071   108.717873
	   65 D(1,2,3,4)      =    121.613373     0.000006     0.026603   121.639977
	   66 D(1,2,3,5)      =   -122.069875    -0.000008    -0.131654  -122.201529
	   67 D(1,2,3,6)      =     -0.236709    -0.000000    -0.036665    -0.273373
	   68 D(1,12,7,6)     =     -0.116944    -0.000001    -0.081018    -0.197962
	   69 D(1,12,7,8)     =    179.631048    -0.000000    -0.004757   179.626291
	   70 D(1,12,11,10)   =    179.840128    -0.000001    -0.062105   179.778024
	   71 D(1,12,11,20)   =     -0.787444     0.000002     0.309224    -0.478220
	   72 D(2,1,12,7)     =      0.180349     0.000001     0.031078     0.211427
	   73 D(2,1,12,11)    =   -179.857443    -0.000002    -0.148432  -180.005875
	   74 D(2,3,6,7)      =      0.284907    -0.000000    -0.007470     0.277437
	   75 D(2,3,6,16)     =   -179.761328     0.000000     0.022482  -179.738846
	   76 D(3,2,1,12)     =      0.008470    -0.000000     0.027816     0.036286
	   77 D(3,2,1,19)     =    179.968714     0.000000     0.042261   180.010975
	   78 D(3,6,7,8)      =   -179.856536    -0.000000    -0.010568  -179.867104
	   79 D(3,6,7,12)     =     -0.111670     0.000001     0.067264    -0.044406
	   80 D(4,3,2,15)     =    -58.401415     0.000007     0.109724   -58.291691
	   81 D(4,3,6,7)      =   -121.284090    -0.000002     0.105033  -121.179057
	   82 D(4,3,6,16)     =     58.669675    -0.000001     0.134985    58.804660
	   83 D(5,3,2,15)     =     57.915337    -0.000007    -0.048534    57.866803
	   84 D(5,3,6,7)      =    121.836906     0.000002    -0.074995   121.761911
	   85 D(5,3,6,16)     =    -58.209329     0.000002    -0.045042   -58.254372
	   86 D(6,3,2,15)     =    179.748503     0.000001     0.046456   179.794959
	   87 D(6,7,8,9)      =    179.943377     0.000002     0.152449   180.095826
	   88 D(6,7,8,18)     =     -0.033876    -0.000000    -0.006940    -0.040816
	   89 D(6,7,12,11)    =    179.920722     0.000001     0.100775   180.021497
	   90 D(7,8,9,10)     =      0.476291    -0.000003    -0.266680     0.209611
	   91 D(7,8,9,17)     =   -179.371954    -0.000007    -0.512375  -179.884329
	   92 D(7,12,1,19)    =   -179.777218     0.000000     0.015326  -179.761892
	   93 D(7,12,11,10)   =     -0.197650    -0.000003    -0.239872    -0.437522
	   94 D(7,12,11,20)   =    179.174778     0.000000     0.131457   179.306234
	   95 D(8,7,6,16)     =      0.190380    -0.000000    -0.040258     0.150122
	   96 D(8,7,12,11)    =     -0.331286     0.000002     0.177036    -0.154249
	   97 D(8,9,10,11)    =     -0.981367     0.000001     0.176126    -0.805241
	   98 D(8,9,10,13)    =   -179.113780    -0.000001     0.171912  -178.941868
	   99 D(9,8,7,12)     =      0.193165     0.000001     0.077118     0.270283
	  100 D(9,10,11,12)   =      0.844591     0.000003     0.078216     0.922807
	  101 D(9,10,11,20)   =   -178.519059    -0.000000    -0.295080  -178.814139
	  102 *D(9,10,13,14)  =   -175.930270    -0.000000    -0.000000  -175.930270
	  103 D(10,9,8,18)    =   -179.547017    -0.000001    -0.104940  -179.651957
	  104 *D(10,13,14,21) =    -65.423493    -0.000000    -0.000000   -65.423493
	  105 D(10,13,14,22)  =     56.151780     0.000069     3.003749    59.155529
	  106 D(10,13,14,23)  =    175.404757     0.000015     1.097761   176.502517
	  107 D(11,10,9,17)   =    178.862649     0.000004     0.427374   179.290023
	  108 *D(11,10,13,14) =      5.983447    -0.000000     0.000000     5.983447
	  109 D(11,12,1,19)   =      0.184990    -0.000002    -0.164184     0.020806
	  110 D(12,1,2,15)    =   -179.977271    -0.000001    -0.055383  -180.032654
	  111 D(12,7,6,16)    =    179.935247     0.000000     0.037574   179.972821
	  112 D(12,7,8,18)    =   -179.784088    -0.000001    -0.082271  -179.866359
	  113 D(12,11,10,13)  =    178.994899    -0.000006    -0.039182   178.955717
	  114 D(13,10,9,17)   =      0.730237     0.000003     0.423160     1.153397
	  115 D(13,10,11,20)  =     -0.368751    -0.000009    -0.412478    -0.781229
	  116 D(15,2,1,19)    =     -0.017027    -0.000000    -0.040938    -0.057965
	  117 D(17,9,8,18)    =      0.604737    -0.000004    -0.350635     0.254103
	 ---------------------------------------------------------------------------
	Successfully symmetrized geometry.

  ==> Convergence Check <==

  Measures of convergence in internal coordinates in au.
  Criteria marked as inactive (o), active & met (*), and active & unmet ( ).
  --------------------------------------------------------------------------------------------- ~
   Step     Total Energy     Delta E     MAX Force     RMS Force      MAX Disp      RMS Disp    ~
  --------------------------------------------------------------------------------------------- ~
    Convergence Criteria             o    2.50e-03 *    1.70e-03 *    1.00e-02 *    6.70e-03 *  ~
  --------------------------------------------------------------------------------------------- ~
      1   -1188.11365388   -1.19e+03 o    3.16e-02      7.52e-03      1.24e-01      2.16e-02    ~
  ---------------------------------------------------------------------------------------------

	Writing optimization data to binary file.
	Structure for next step:
	Cartesian Geometry (in Angstrom)
	    N    -0.4047717383  -1.2732480860   0.9342833416
	    C    -1.7391470045  -1.2323646599   1.2411700584
	    C    -2.5234571227  -0.0238786092   0.6591710004
	    F    -3.5295836560  -0.5350715377  -0.1140105286
	    F    -3.0823149656   0.6376177866   1.7173712002
	    C    -1.7407860091   1.0199814143  -0.2001691736
	    C    -0.3076734489   0.7808989633  -0.4048138029
	    C     0.4580776529   1.6871946219  -1.1689435320
	    C     1.8065337521   1.4846606228  -1.3780863330
	    C     2.4306132167   0.3482674224  -0.8214633672
	    C     1.6819619883  -0.5614146967  -0.0441027339
	    C     0.3240255054  -0.3495884019   0.1586431928
	    S     4.1583926319   0.1607401737  -1.0996899879
	    C     4.4857879525  -1.4673413906  -0.3254084868
	    O    -2.2853233018  -2.0868695678   1.9260516369
	    O    -2.3462496610   1.9757313324  -0.6581596903
	    H     2.3765687535   2.2063061645  -1.9742799702
	    H    -0.0373364919   2.5604356839  -1.5996479847
	    H     0.0758095507  -2.0803808273   1.3335746256
	    H     2.1504271227  -1.4382933585   0.4123846105
	    H     4.3249146975  -1.4459173113   0.7673751321
	    H     3.8839568814  -2.2689312129  -0.7893267443
	    H     5.5403341595  -1.6587083979  -0.5292433389
			--------------------------
			 OPTKING Finished Execution 
			--------------------------

    Structure for next step:
    Molecular point group: c1
    Full point group: C1

    Geometry (in Angstrom), charge = 0, multiplicity = 1:

    N           -0.423521376966    -1.287895609951     0.938979448166
    C           -1.757896648336    -1.247012183602     1.245866166153
    C           -2.542206769632    -0.038526128231     0.663867105847
    F           -3.548333306886    -0.549719058753    -0.109314426163
    F           -3.101064614763     0.622970270180     1.722067309787
    C           -1.759535652951     1.005333899414    -0.195473071568
    C           -0.326423087116     0.766251447514    -0.400117701605
    C            0.439328017638     1.672547109662    -1.164247433779
    C            1.787784122173     1.470013109713    -1.373390235579
    C            2.411863589236     0.333619904849    -0.816767267581
    C            1.663212357855    -0.576062217764    -0.039406631226
    C            0.305275869603    -0.364235922129     0.163339296279
    S            4.139643011232     0.146092655426    -1.094993889328
    C            4.467038333089    -1.481988915264    -0.320712385252
    O           -2.304072947844    -2.101517094934     1.930747747339
    O           -2.364999307209     1.961083821255    -0.653463590085
    H            2.357819125789     2.191658654289    -1.969583875104
    H           -0.056086129042     2.545788175030    -1.594951888115
    H            0.057059913988    -2.095028354380     1.338270733685
    H            2.131677494109    -1.452940883027     0.417080714967
    H            4.306165077502    -1.460564835914     0.772071237975
    H            3.865207259654    -2.283578740745    -0.784630644526
    H            5.521584544200    -1.673355923312    -0.524547238121

gradient() will perform analytic gradient computation.

*** tstart() called on cpu-spot-dy-c5n2xlarge-1
*** at Tue Jun 22 00:03:05 2021

   => Loading Basis Set <=

    Name: 6-31+G*
    Role: ORBITAL
    Keyword: BASIS
    atoms 1             entry N          line   138 file /fsx/users/francis/anaconda3/envs/poltype-dev/share/psi4/basis/6-31pgs.gbs 
    atoms 2-3, 6-12, 14 entry C          line   119 file /fsx/users/francis/anaconda3/envs/poltype-dev/share/psi4/basis/6-31pgs.gbs 
    atoms 4-5           entry F          line   176 file /fsx/users/francis/anaconda3/envs/poltype-dev/share/psi4/basis/6-31pgs.gbs 
    atoms 13            entry S          line   344 file /fsx/users/francis/anaconda3/envs/poltype-dev/share/psi4/basis/6-31pgs.gbs 
    atoms 15-16         entry O          line   157 file /fsx/users/francis/anaconda3/envs/poltype-dev/share/psi4/basis/6-31pgs.gbs 
    atoms 17-23         entry H          line    46 file /fsx/users/francis/anaconda3/envs/poltype-dev/share/psi4/basis/6-31pgs.gbs 


         ---------------------------------------------------------
                                   SCF
               by Justin Turney, Rob Parrish, Andy Simmonett
                          and Daniel G. A. Smith
                              RKS Reference
                        8 Threads,  15258 MiB Core
         ---------------------------------------------------------

  ==> Geometry <==

    Molecular point group: c1
    Full point group: C1

    Geometry (in Angstrom), charge = 0, multiplicity = 1:

       Center              X                  Y                   Z               Mass       
    ------------   -----------------  -----------------  -----------------  -----------------
         N           -0.423521376966    -1.287895609951     0.938979448166    14.003074004430
         C           -1.757896648336    -1.247012183602     1.245866166153    12.000000000000
         C           -2.542206769632    -0.038526128231     0.663867105847    12.000000000000
         F           -3.548333306886    -0.549719058753    -0.109314426163    18.998403162730
         F           -3.101064614763     0.622970270180     1.722067309787    18.998403162730
         C           -1.759535652951     1.005333899414    -0.195473071568    12.000000000000
         C           -0.326423087116     0.766251447514    -0.400117701605    12.000000000000
         C            0.439328017638     1.672547109662    -1.164247433779    12.000000000000
         C            1.787784122173     1.470013109713    -1.373390235579    12.000000000000
         C            2.411863589236     0.333619904849    -0.816767267581    12.000000000000
         C            1.663212357855    -0.576062217764    -0.039406631226    12.000000000000
         C            0.305275869603    -0.364235922129     0.163339296279    12.000000000000
         S            4.139643011232     0.146092655426    -1.094993889328    31.972071174400
         C            4.467038333089    -1.481988915264    -0.320712385252    12.000000000000
         O           -2.304072947844    -2.101517094934     1.930747747339    15.994914619570
         O           -2.364999307209     1.961083821255    -0.653463590085    15.994914619570
         H            2.357819125789     2.191658654289    -1.969583875104     1.007825032230
         H           -0.056086129042     2.545788175030    -1.594951888115     1.007825032230
         H            0.057059913988    -2.095028354380     1.338270733685     1.007825032230
         H            2.131677494109    -1.452940883027     0.417080714967     1.007825032230
         H            4.306165077502    -1.460564835914     0.772071237975     1.007825032230
         H            3.865207259654    -2.283578740745    -0.784630644526     1.007825032230
         H            5.521584544200    -1.673355923312    -0.524547238121     1.007825032230

  Running in c1 symmetry.

  Rotational constants: A =      0.03517  B =      0.00881  C =      0.00734 [cm^-1]
  Rotational constants: A =   1054.46144  B =    263.97936  C =    220.08258 [MHz]
  Nuclear repulsion = 1187.281061930005990

  Charge       = 0
  Multiplicity = 1
  Electrons    = 124
  Nalpha       = 62
  Nbeta        = 62

  ==> Algorithm <==

  SCF Algorithm Type is DF.
  DIIS enabled.
  MOM disabled.
  Fractional occupation disabled.
  Guess Type is READ.
  Energy threshold   = 1.00e-08
  Density threshold  = 1.00e-08
  Integral threshold = 0.00e+00

  ==> Primary Basis <==

  Basis Set: 6-31+G*
    Blend: 6-31+G*
    Number of shells: 144
    Number of basis function: 322
    Number of Cartesian functions: 322
    Spherical Harmonics?: false
    Max angular momentum: 2

  ==> DFT Potential <==

   => Composite Functional: WB97X-D <= 

    wB97X-D Hyb-GGA Exchange-Correlation Functional

    J.-D. Chai and M. Head-Gordon, Phys. Chem. Chem. Phys. 10, 6615 (2008)

    Deriv               =              1
    GGA                 =           TRUE
    Meta                =          FALSE

    Exchange Hybrid     =           TRUE
    MP2 Hybrid          =          FALSE

   => Exchange-Correlation Functionals <=

    1.0000   wB97D range-separated functional

   => Exact (HF) Exchange <=

    0.7780            HF,LR [omega = 0.2000]
    0.2220               HF 

   => Molecular Quadrature <=

    Radial Scheme          =       TREUTLER
    Pruning Scheme         =           FLAT
    Nuclear Scheme         =       TREUTLER

    BS radius alpha        =              1
    Pruning alpha          =              1
    Radial Points          =             75
    Spherical Points       =            302
    Total Points           =         520847
    Total Blocks           =           3848
    Max Points             =            256
    Max Functions          =            285

   => WB97X-D: Empirical Dispersion <=

    Chai and Head-Gordon Dispersion Correction
    Chai, J.-D.; Head-Gordon, M. (2010), J. Chem. Phys., 132: 6615-6620

        s6 =       1.000000

   => Loading Basis Set <=

    Name: (6-31+G* AUX)
    Role: JKFIT
    Keyword: DF_BASIS_SCF
    atoms 1             entry N          line   252 file /fsx/users/francis/anaconda3/envs/poltype-dev/share/psi4/basis/heavy-aug-cc-pvdz-jkfit.gbs 
    atoms 2-3, 6-12, 14 entry C          line   194 file /fsx/users/francis/anaconda3/envs/poltype-dev/share/psi4/basis/heavy-aug-cc-pvdz-jkfit.gbs 
    atoms 4-5           entry F          line   368 file /fsx/users/francis/anaconda3/envs/poltype-dev/share/psi4/basis/heavy-aug-cc-pvdz-jkfit.gbs 
    atoms 13            entry S          line   730 file /fsx/users/francis/anaconda3/envs/poltype-dev/share/psi4/basis/heavy-aug-cc-pvdz-jkfit.gbs 
    atoms 15-16         entry O          line   310 file /fsx/users/francis/anaconda3/envs/poltype-dev/share/psi4/basis/heavy-aug-cc-pvdz-jkfit.gbs 
    atoms 17-23         entry H          line   116 file /fsx/users/francis/anaconda3/envs/poltype-dev/share/psi4/basis/heavy-aug-cc-pvdz-jkfit.gbs 

   => Loading Basis Set <=

    Name: 6-31+G*
    Role: ORBITAL
    Keyword: BASIS
    atoms 1             entry N          line   138 file /fsx/users/francis/anaconda3/envs/poltype-dev/share/psi4/basis/6-31pgs.gbs 
    atoms 2-3, 6-12, 14 entry C          line   119 file /fsx/users/francis/anaconda3/envs/poltype-dev/share/psi4/basis/6-31pgs.gbs 
    atoms 4-5           entry F          line   176 file /fsx/users/francis/anaconda3/envs/poltype-dev/share/psi4/basis/6-31pgs.gbs 
    atoms 13            entry S          line   344 file /fsx/users/francis/anaconda3/envs/poltype-dev/share/psi4/basis/6-31pgs.gbs 
    atoms 15-16         entry O          line   157 file /fsx/users/francis/anaconda3/envs/poltype-dev/share/psi4/basis/6-31pgs.gbs 
    atoms 17-23         entry H          line    46 file /fsx/users/francis/anaconda3/envs/poltype-dev/share/psi4/basis/6-31pgs.gbs 

  Reading orbitals from file 180, no projection.

  ==> Pre-Iterations <==

   -------------------------------------------------------
    Irrep   Nso     Nmo     Nalpha   Nbeta   Ndocc  Nsocc
   -------------------------------------------------------
     A        322     322       0       0       0       0
   -------------------------------------------------------
    Total     322     322      62      62      62       0
   -------------------------------------------------------

  ==> Integral Setup <==

  ==> DiskDFJK: Density-Fitted J/K Matrices <==

    J tasked:                  Yes
    K tasked:                  Yes
    wK tasked:                 Yes
    Omega:               2.000E-01
    OpenMP threads:              8
    Integrals threads:           8
    Memory [MiB]:             8410
    Algorithm:                Core
    Integral Cache:           NONE
    Schwarz Cutoff:          1E-12
    Fitting Condition:       1E-10

   => Auxiliary Basis Set <=

  Basis Set: (6-31+G* AUX)
    Blend: HEAVY-AUG-CC-PVDZ-JKFIT
    Number of shells: 523
    Number of basis function: 1840
    Number of Cartesian functions: 1840
    Spherical Harmonics?: false
    Max angular momentum: 3

  Cached 100.0% of DFT collocation blocks in 2.962 [GiB].

  Minimum eigenvalue in the overlap matrix is 3.2490751835E-07.
  Using Symmetric Orthogonalization.

  SCF Guess: Orbitals guess was supplied from a previous computation.

  ==> Iterations <==

                           Total Energy        Delta E     RMS |[F,P]|

   @DF-RKS iter   0: -1188.25424297603286   -1.18825e+03   3.24948e-03 
   @DF-RKS iter   1: -1188.10537082593510    1.48872e-01   3.68941e-04 DIIS
   @DF-RKS iter   2: -1188.11482572163459   -9.45490e-03   3.27040e-04 DIIS
   @DF-RKS iter   3: -1188.11914313875104   -4.31742e-03   1.25945e-04 DIIS
   @DF-RKS iter   4: -1188.11984472945869   -7.01591e-04   4.98778e-05 DIIS
   @DF-RKS iter   5: -1188.11998587073344   -1.41141e-04   1.45327e-05 DIIS
   @DF-RKS iter   6: -1188.12000014046816   -1.42697e-05   5.26927e-06 DIIS
   @DF-RKS iter   7: -1188.12000294253494   -2.80207e-06   2.08544e-06 DIIS
   @DF-RKS iter   8: -1188.12000360069851   -6.58164e-07   9.26958e-07 DIIS
   @DF-RKS iter   9: -1188.12000376626634   -1.65568e-07   4.47619e-07 DIIS
   @DF-RKS iter  10: -1188.12000380703694   -4.07706e-08   2.58627e-07 DIIS
   @DF-RKS iter  11: -1188.12000381952930   -1.24924e-08   8.97422e-08 DIIS
   @DF-RKS iter  12: -1188.12000382069323   -1.16393e-09   3.95415e-08 DIIS
   @DF-RKS iter  13: -1188.12000382090469   -2.11458e-10   1.37291e-08 DIIS
   @DF-RKS iter  14: -1188.12000382093106   -2.63753e-11   7.43289e-09 DIIS
  Energy and wave function converged.


  ==> Post-Iterations <==

    Orbital Energies [Eh]
    ---------------------

    Doubly Occupied:                                                      

       1A    -89.089068     2A    -24.870836     3A    -24.870819  
       4A    -19.301309     5A    -19.293523     6A    -14.545139  
       7A    -10.503508     8A    -10.456472     9A    -10.429806  
      10A    -10.409893    11A    -10.391174    12A    -10.363617  
      13A    -10.352907    14A    -10.351830    15A    -10.350131  
      16A    -10.342787    17A     -8.106211    18A     -6.056839  
      19A     -6.052551    20A     -6.046420    21A     -1.383859  
      22A     -1.325835    23A     -1.187068    24A     -1.175545  
      25A     -1.096381    26A     -1.005270    27A     -0.944375  
      28A     -0.904067    29A     -0.892966    30A     -0.864723  
      31A     -0.801080    32A     -0.769808    33A     -0.752266  
      34A     -0.740522    35A     -0.695151    36A     -0.679933  
      37A     -0.666395    38A     -0.646877    39A     -0.627792  
      40A     -0.593021    41A     -0.584651    42A     -0.566930  
      43A     -0.564721    44A     -0.560195    45A     -0.553990  
      46A     -0.549800    47A     -0.549013    48A     -0.531815  
      49A     -0.522949    50A     -0.515623    51A     -0.506092  
      52A     -0.502169    53A     -0.486575    54A     -0.480194  
      55A     -0.470538    56A     -0.443807    57A     -0.441030  
      58A     -0.395330    59A     -0.394493    60A     -0.364475  
      61A     -0.346358    62A     -0.319085  

    Virtual:                                                              

      63A     -0.044356    64A      0.014462    65A      0.030885  
      66A      0.052181    67A      0.053874    68A      0.058651  
      69A      0.065434    70A      0.076756    71A      0.078710  
      72A      0.085629    73A      0.092008    74A      0.096875  
      75A      0.105392    76A      0.110556    77A      0.114789  
      78A      0.116445    79A      0.119953    80A      0.131308  
      81A      0.134254    82A      0.139150    83A      0.147570  
      84A      0.154640    85A      0.155498    86A      0.158737  
      87A      0.166682    88A      0.172232    89A      0.177345  
      90A      0.180702    91A      0.187427    92A      0.188549  
      93A      0.192601    94A      0.203950    95A      0.204649  
      96A      0.209163    97A      0.209274    98A      0.222640  
      99A      0.225558   100A      0.228111   101A      0.231362  
     102A      0.235997   103A      0.242108   104A      0.243875  
     105A      0.246781   106A      0.250621   107A      0.253461  
     108A      0.256345   109A      0.264461   110A      0.272599  
     111A      0.281602   112A      0.286143   113A      0.287892  
     114A      0.289687   115A      0.300184   116A      0.303672  
     117A      0.306707   118A      0.313811   119A      0.316247  
     120A      0.320495   121A      0.327765   122A      0.334462  
     123A      0.339683   124A      0.348919   125A      0.357059  
     126A      0.361897   127A      0.367425   128A      0.376246  
     129A      0.384239   130A      0.387187   131A      0.393891  
     132A      0.395902   133A      0.396049   134A      0.405961  
     135A      0.411623   136A      0.418914   137A      0.422997  
     138A      0.435139   139A      0.443243   140A      0.449511  
     141A      0.459711   142A      0.468217   143A      0.478559  
     144A      0.501300   145A      0.503840   146A      0.515584  
     147A      0.531174   148A      0.542234   149A      0.547475  
     150A      0.549572   151A      0.570745   152A      0.576826  
     153A      0.592507   154A      0.598764   155A      0.613899  
     156A      0.632193   157A      0.652845   158A      0.671870  
     159A      0.689455   160A      0.694644   161A      0.725342  
     162A      0.735104   163A      0.753074   164A      0.763250  
     165A      0.766548   166A      0.768965   167A      0.787323  
     168A      0.802139   169A      0.815801   170A      0.821718  
     171A      0.825375   172A      0.846289   173A      0.863843  
     174A      0.875887   175A      0.886292   176A      0.891306  
     177A      0.915675   178A      0.927736   179A      0.936351  
     180A      0.942664   181A      0.957801   182A      0.972488  
     183A      0.977293   184A      0.992151   185A      1.008708  
     186A      1.024210   187A      1.041006   188A      1.053859  
     189A      1.057296   190A      1.076447   191A      1.083017  
     192A      1.114149   193A      1.117633   194A      1.158996  
     195A      1.177830   196A      1.194158   197A      1.202043  
     198A      1.212672   199A      1.214475   200A      1.225858  
     201A      1.235236   202A      1.244868   203A      1.279912  
     204A      1.281473   205A      1.292163   206A      1.325854  
     207A      1.329855   208A      1.335300   209A      1.346671  
     210A      1.387912   211A      1.409594   212A      1.411820  
     213A      1.416136   214A      1.431246   215A      1.448532  
     216A      1.450754   217A      1.465582   218A      1.470123  
     219A      1.478874   220A      1.486146   221A      1.511417  
     222A      1.518818   223A      1.525352   224A      1.546149  
     225A      1.578335   226A      1.602063   227A      1.633840  
     228A      1.656330   229A      1.671627   230A      1.677796  
     231A      1.721525   232A      1.746106   233A      1.750053  
     234A      1.760754   235A      1.761786   236A      1.765929  
     237A      1.783980   238A      1.787232   239A      1.791131  
     240A      1.826815   241A      1.842490   242A      1.872652  
     243A      1.888611   244A      1.898327   245A      1.906902  
     246A      1.921748   247A      1.922511   248A      1.955543  
     249A      1.968889   250A      1.971582   251A      1.979153  
     252A      2.014872   253A      2.033760   254A      2.048844  
     255A      2.056404   256A      2.063958   257A      2.083354  
     258A      2.100021   259A      2.108377   260A      2.134610  
     261A      2.164843   262A      2.169078   263A      2.179582  
     264A      2.210482   265A      2.221111   266A      2.225681  
     267A      2.241030   268A      2.254627   269A      2.270113  
     270A      2.274939   271A      2.290950   272A      2.312901  
     273A      2.320633   274A      2.350400   275A      2.354819  
     276A      2.383239   277A      2.389200   278A      2.419320  
     279A      2.476342   280A      2.477016   281A      2.534970  
     282A      2.540038   283A      2.587845   284A      2.640120  
     285A      2.677672   286A      2.684260   287A      2.725629  
     288A      2.742257   289A      2.749538   290A      2.779716  
     291A      2.786668   292A      2.835578   293A      2.850947  
     294A      2.868143   295A      2.918562   296A      2.952914  
     297A      2.981672   298A      3.037914   299A      3.141614  
     300A      3.171109   301A      3.214899   302A      3.245945  
     303A      3.353111   304A      3.405658   305A      3.489696  
     306A      3.510886   307A      4.034213   308A      4.289234  
     309A      4.337813   310A      4.345378   311A      4.366940  
     312A      4.383352   313A      4.424213   314A      4.485687  
     315A      4.503160   316A      4.527476   317A      4.594134  
     318A      4.800175   319A      4.857086   320A      5.148537  
     321A      5.704047   322A      7.211742  

    Final Occupation by Irrep:
              A 
    DOCC [    62 ]

  @DF-RKS Final Energy: -1188.12000382093106

   => Energetics <=

    Nuclear Repulsion Energy =           1187.2810619300059898
    One-Electron Energy =               -3988.5349212632545459
    Two-Electron Energy =                1702.6334265723817225
    DFT Exchange-Correlation Energy =     -89.4857576243354771
    Empirical Dispersion Energy =          -0.0138134357290111
    VV10 Nonlocal Energy =                  0.0000000000000000
    Total Energy =                      -1188.1200038209310605

Computation Completed


Properties will be evaluated at   0.000000,   0.000000,   0.000000 [a0]

Properties computed using the SCF density matrix

  Nuclear Dipole Moment: [e a0]
     X:    23.4072      Y:    -4.0258      Z:    -3.7465

  Electronic Dipole Moment: [e a0]
     X:   -20.2827      Y:     3.2871      Z:     3.3824

  Dipole Moment: [e a0]
     X:     3.1245      Y:    -0.7388      Z:    -0.3641     Total:     3.2312

  Dipole Moment: [D]
     X:     7.9416      Y:    -1.8777      Z:    -0.9255     Total:     8.2129


*** tstop() called on cpu-spot-dy-c5n2xlarge-1 at Tue Jun 22 00:04:13 2021
Module time:
	user time   =     510.93 seconds =       8.52 minutes
	system time =       7.32 seconds =       0.12 minutes
	total time  =         68 seconds =       1.13 minutes
Total time:
	user time   =    1234.66 seconds =      20.58 minutes
	system time =      21.31 seconds =       0.36 minutes
	total time  =        168 seconds =       2.80 minutes

*** tstart() called on cpu-spot-dy-c5n2xlarge-1
*** at Tue Jun 22 00:04:13 2021


         ------------------------------------------------------------
                                   SCF GRAD                          
                          Rob Parrish, Justin Turney,                
                       Andy Simmonett, and Alex Sokolov              
         ------------------------------------------------------------

  ==> Geometry <==

    Molecular point group: c1
    Full point group: C1

    Geometry (in Angstrom), charge = 0, multiplicity = 1:

       Center              X                  Y                   Z               Mass       
    ------------   -----------------  -----------------  -----------------  -----------------
         N           -0.423521376966    -1.287895609951     0.938979448166    14.003074004430
         C           -1.757896648336    -1.247012183602     1.245866166153    12.000000000000
         C           -2.542206769632    -0.038526128231     0.663867105847    12.000000000000
         F           -3.548333306886    -0.549719058753    -0.109314426163    18.998403162730
         F           -3.101064614763     0.622970270180     1.722067309787    18.998403162730
         C           -1.759535652951     1.005333899414    -0.195473071568    12.000000000000
         C           -0.326423087116     0.766251447514    -0.400117701605    12.000000000000
         C            0.439328017638     1.672547109662    -1.164247433779    12.000000000000
         C            1.787784122173     1.470013109713    -1.373390235579    12.000000000000
         C            2.411863589236     0.333619904849    -0.816767267581    12.000000000000
         C            1.663212357855    -0.576062217764    -0.039406631226    12.000000000000
         C            0.305275869603    -0.364235922129     0.163339296279    12.000000000000
         S            4.139643011232     0.146092655426    -1.094993889328    31.972071174400
         C            4.467038333089    -1.481988915264    -0.320712385252    12.000000000000
         O           -2.304072947844    -2.101517094934     1.930747747339    15.994914619570
         O           -2.364999307209     1.961083821255    -0.653463590085    15.994914619570
         H            2.357819125789     2.191658654289    -1.969583875104     1.007825032230
         H           -0.056086129042     2.545788175030    -1.594951888115     1.007825032230
         H            0.057059913988    -2.095028354380     1.338270733685     1.007825032230
         H            2.131677494109    -1.452940883027     0.417080714967     1.007825032230
         H            4.306165077502    -1.460564835914     0.772071237975     1.007825032230
         H            3.865207259654    -2.283578740745    -0.784630644526     1.007825032230
         H            5.521584544200    -1.673355923312    -0.524547238121     1.007825032230

  Nuclear repulsion = 1187.281061930005990

  ==> Basis Set <==

  Basis Set: 6-31+G*
    Blend: 6-31+G*
    Number of shells: 144
    Number of basis function: 322
    Number of Cartesian functions: 322
    Spherical Harmonics?: false
    Max angular momentum: 2

  ==> DFJKGrad: Density-Fitted SCF Gradients <==

    Gradient:                    1
    J tasked:                  Yes
    K tasked:                  Yes
    wK tasked:                 Yes
    Omega:               2.000E-01
    OpenMP threads:              8
    Integrals threads:           8
    Memory [MiB]:            11444
    Schwarz Cutoff:          0E+00
    Fitting Condition:       1E-10

   => Auxiliary Basis Set <=

  Basis Set: (6-31+G* AUX)
    Blend: HEAVY-AUG-CC-PVDZ-JKFIT
    Number of shells: 523
    Number of basis function: 1840
    Number of Cartesian functions: 1840
    Spherical Harmonics?: false
    Max angular momentum: 3

  ==> DFT Potential <==

   => Composite Functional: WB97X-D <= 

    wB97X-D Hyb-GGA Exchange-Correlation Functional

    J.-D. Chai and M. Head-Gordon, Phys. Chem. Chem. Phys. 10, 6615 (2008)

    Deriv               =              1
    GGA                 =           TRUE
    Meta                =          FALSE

    Exchange Hybrid     =           TRUE
    MP2 Hybrid          =          FALSE

   => Exchange-Correlation Functionals <=

    1.0000   wB97D range-separated functional

   => Exact (HF) Exchange <=

    0.7780            HF,LR [omega = 0.2000]
    0.2220               HF 

   => Molecular Quadrature <=

    Radial Scheme          =       TREUTLER
    Pruning Scheme         =           FLAT
    Nuclear Scheme         =       TREUTLER

    BS radius alpha        =              1
    Pruning alpha          =              1
    Radial Points          =             75
    Spherical Points       =            302
    Total Points           =         520847
    Total Blocks           =           3848
    Max Points             =            256
    Max Functions          =            285


  -Total Gradient:
     Atom            X                  Y                   Z
    ------   -----------------  -----------------  -----------------
       1       -0.003242761970     0.001324158015    -0.000106743362
       2        0.008091452487     0.010820333148    -0.008918885545
       3        0.008072114179    -0.000511202940    -0.001613668850
       4       -0.007100419273    -0.004631695465    -0.006324337964
       5       -0.003283149795     0.004911407052     0.008522769266
       6        0.005421042616    -0.009971552404     0.005116151165
       7       -0.001992275277     0.001641171465    -0.000645591868
       8        0.004242647756     0.001606307901    -0.001876296022
       9       -0.001661287361    -0.000582269715     0.001303813522
      10        0.004282059829     0.004029452666    -0.007102630364
      11       -0.008757950466    -0.002217845190     0.004373668565
      12        0.009545259785    -0.003366806173    -0.000081369647
      13        0.002326025487     0.010297577742    -0.004634938626
      14        0.002042733756    -0.002819927032     0.001030338668
      15       -0.009854984816    -0.017493372081     0.013641747618
      16       -0.005635488525     0.013720034281    -0.007356600993
      17        0.002201586301     0.005884256467    -0.003935193108
      18       -0.000557026857     0.004483509716    -0.002825172511
      19        0.000930871221    -0.005920632290     0.003629541322
      20        0.003030946256    -0.005973071712     0.003427428952
      21       -0.001931362544    -0.000699004710     0.007806241648
      22       -0.003997793995    -0.006172417075    -0.002327158340
      23       -0.000952847277     0.001544966641    -0.001270409821


[...]
	 B(3,6,16)        =         2.062574	     118.176763
	 B(4,3,5)         =         1.890355	     108.309335
	 B(4,3,6)         =         1.883977	     107.943915
	 B(5,3,6)         =         1.885273	     108.018182
	 B(6,7,8)         =         2.096708	     120.132492
	 B(6,7,12)        =         2.112790	     121.053963
	 B(7,6,16)        =         2.176479	     124.703079
	 B(7,8,9)         =         2.115744	     121.223175
	 B(7,8,18)        =         2.060609	     118.064173
	 B(7,12,11)       =         2.101309	     120.396138
	 B(8,7,12)        =         2.073687	     118.813519
	 B(8,9,10)        =         2.090278	     119.764118
	 B(8,9,17)        =         2.098522	     120.236450
	 B(9,8,18)        =         2.106833	     120.712615
	 B(9,10,11)       =         2.089242	     119.704771
	 B(9,10,13)       =         2.026695	     116.121088
	 B(10,9,17)       =         2.094370	     119.998540
	 B(10,11,12)      =         2.096034	     120.093882
	 B(10,11,20)      =         2.112620	     121.044202
	 B(10,13,14)      =         1.814566	     103.966971
	 B(11,10,13)      =         2.166770	     124.146799
	 B(12,1,19)       =         2.069286	     118.561334
	 B(12,11,20)      =         2.074531	     118.861845
	 B(13,14,21)      =         1.952950	     111.895820
	 B(13,14,22)      =         1.947622	     111.590520
	 B(13,14,23)      =         1.841510	     105.510754
	 B(21,14,22)      =         1.931392	     110.660628
	 B(21,14,23)      =         1.892355	     108.423962
	 B(22,14,23)      =         1.894157	     108.527203
	 D(1,2,3,4)       =         2.113395	     121.088642
	 D(1,2,3,5)       =        -2.143522	    -122.814740
	 D(1,2,3,6)       =        -0.013640	      -0.781523
	 D(1,12,7,6)      =        -0.003725	      -0.213422
	 D(1,12,7,8)      =         3.136846	     179.728040
	 D(1,12,11,10)    =         3.137747	     179.779665
	 D(1,12,11,20)    =        -0.002182	      -0.125019
	 D(2,1,12,7)      =         0.003483	       0.199545
	 D(2,1,12,11)     =         3.139550	     179.882951
	 D(2,3,6,7)       =         0.013407	       0.768151
	 D(2,3,6,16)      =        -3.133857	    -179.556757
	 D(3,2,1,12)      =         0.005561	       0.318638
	 D(3,2,1,19)      =        -3.137631	    -179.773030
	 D(3,6,7,8)       =         3.137741	     179.779318
	 D(3,6,7,12)      =        -0.004887	      -0.279987
	 D(4,3,2,15)      =        -1.024395	     -58.693493
	 D(4,3,6,7)       =        -2.106513	    -120.694316
	 D(4,3,6,16)      =         1.029409	      58.980776
	 D(5,3,2,15)      =         1.001874	      57.403125
	 D(5,3,6,7)       =         2.136227	     122.396797
	 D(5,3,6,16)      =        -1.011036	     -57.928111
	 D(6,3,2,15)      =         3.131755	     179.436341
	 D(6,7,8,9)       =        -3.140031	    -179.910502
	 D(6,7,8,18)      =         0.000351	       0.020096
	 D(6,7,12,11)     =        -3.139696	    -179.891323
	 D(7,8,9,10)      =         0.002411	       0.138120
	 D(7,8,9,17)      =         3.138006	     179.794483
	 D(7,12,1,19)     =        -3.136451	    -179.705403
	 D(7,12,11,10)    =        -0.009340	      -0.535116
	 D(7,12,11,20)    =         3.133917	     179.560200
	 D(8,7,6,16)      =         0.002229	       0.127694
	 D(8,7,12,11)     =         0.000875	       0.050139
	 D(8,9,10,11)     =        -0.010853	      -0.621824
	 D(8,9,10,13)     =        -3.120622	    -178.798446
	 D(9,8,7,12)      =         0.002574	       0.147482
	 D(9,10,11,12)    =         0.014291	       0.818801
	 D(9,10,11,20)    =        -3.129002	    -179.278630
	*D(9,10,13,14)    =        -3.070562	    -175.930270
	 D(10,9,8,18)     =        -3.137939	    -179.790648
	*D(10,13,14,21)   =        -1.141855	     -65.423493
	 D(10,13,14,22)   =         1.033024	      59.187926
	 D(10,13,14,23)   =         3.086863	     176.864196
	 D(11,10,9,17)    =         3.136723	     179.720985
	*D(11,10,13,14)   =         0.104431	       5.983447
	 D(11,12,1,19)    =        -0.000384	      -0.021997
	 D(12,1,2,15)     =        -3.139903	    -179.903188
	 D(12,7,6,16)     =        -3.140399	    -179.931610
	 D(12,7,8,18)     =        -3.140230	    -179.921920
	 D(12,11,10,13)   =         3.121357	     178.840558
	 D(13,10,9,17)    =         0.026954	       1.544364
	 D(13,10,11,20)   =        -0.021937	      -1.256873
	 D(15,2,1,19)     =         0.000090	       0.005144
	 D(17,9,8,18)     =        -0.002344	      -0.134284

	Current energy   :     -1188.1226616373

	Energy change for the previous step:
		Projected    :         0.0000339710
		Actual       :        -0.0000028131

	Performing BFGS update.
	Previous computed or guess Hessian on step 1.
	Steps to be used in Hessian update: 2 1
	Taking RFO optimization step.
	Going to follow RFO solution 1.
	Using RFO vector 1.
	Norm of target step-size    0.01454
	Projected energy change by RFO approximation:        -0.0000068968

	Back-transformation to cartesian coordinates...
	Successfully converged to displaced geometry.

	Back-transformation to cartesian coordinates to adjust frozen coordinates...
	Successfully converged to displaced geometry.

	--- Internal Coordinate Step in ANG or DEG, aJ/ANG or AJ/DEG ---
	 ---------------------------------------------------------------------------
	   Coordinate                Previous        Force       Change         New 
	   ----------                --------       ------       ------       ------
	    1 R(1,2)          =      1.369820    -0.001138    -0.000048     1.369772
	    2 R(1,12)         =      1.397737    -0.001007    -0.000121     1.397617
	    3 R(1,19)         =      1.013020    -0.000983    -0.000074     1.012947
	    4 R(2,3)          =      1.547615    -0.000363     0.000035     1.547650
	    5 R(2,15)         =      1.209266    -0.003598    -0.000163     1.209103
	    6 R(3,4)          =      1.355655    -0.000686    -0.000042     1.355613
	    7 R(3,5)          =      1.355044    -0.001519    -0.000186     1.354858
	    8 R(3,6)          =      1.553459    -0.001341    -0.000179     1.553279
	    9 R(6,7)          =      1.465296    -0.000661    -0.000070     1.465226
	   10 R(6,16)         =      1.211253    -0.002963    -0.000143     1.211109
	   11 R(7,8)          =      1.403504    -0.000684     0.000018     1.403522
	   12 R(7,12)         =      1.401597    -0.001071    -0.000168     1.401429
	   13 R(8,9)          =      1.377486     0.000645    -0.000036     1.377450
	   14 R(8,18)         =      1.085683    -0.000777    -0.000077     1.085606
	   15 R(9,10)         =      1.409551     0.000359     0.000128     1.409680
	   16 R(9,17)         =      1.085870    -0.001149    -0.000117     1.085752
	   17 R(10,11)        =      1.394822    -0.005142    -0.000565     1.394258
	   18 R(10,13)        =      1.760343    -0.001285    -0.000195     1.760148
	   19 R(11,12)        =      1.396281     0.003340     0.000411     1.396692
	   20 R(11,20)        =      1.085135    -0.000040     0.000031     1.085166
	   21 R(13,14)        =      1.808968    -0.002717    -0.000638     1.808330
	   22 R(14,21)        =      1.093417    -0.001043    -0.000071     1.093347
	   23 R(14,22)        =      1.093361    -0.001014    -0.000078     1.093283
	   24 R(14,23)        =      1.092447     0.000778     0.000113     1.092559
	   25 B(1,2,3)        =    115.945208     0.000005     0.007150   115.952358
	   26 B(1,2,15)       =    122.852324    -0.000009    -0.015085   122.837239
	   27 B(1,12,7)       =    120.950887    -0.000004    -0.000788   120.950099
	   28 B(1,12,11)      =    118.652212    -0.000000    -0.004381   118.647831
	   29 B(2,1,12)       =    127.045723    -0.000002    -0.010800   127.034923
	   30 B(2,1,19)       =    114.392882     0.000003     0.012932   114.405814
	   31 B(2,3,4)        =    107.148610     0.000002    -0.009811   107.138798
	   32 B(2,3,5)        =    107.227571     0.000004     0.025196   107.252767
	   33 B(2,3,6)        =    117.879777    -0.000002    -0.001256   117.878521
	   34 B(3,2,15)       =    121.202089     0.000004     0.008283   121.210372
	   35 B(3,6,7)        =    117.119279    -0.000005    -0.011070   117.108209
	   36 B(3,6,16)       =    118.176763    -0.000005    -0.011909   118.164853
	   37 B(4,3,5)        =    108.309335    -0.000002    -0.007374   108.301961
	   38 B(4,3,6)        =    107.943915    -0.000004    -0.021594   107.922321
	   39 B(5,3,6)        =    108.018182     0.000002     0.014055   108.032237
	   40 B(6,7,8)        =    120.132492    -0.000001    -0.009647   120.122845
	   41 B(6,7,12)       =    121.053963     0.000008     0.015908   121.069871
	   42 B(7,6,16)       =    124.703079     0.000010     0.023730   124.726809
	   43 B(7,8,9)        =    121.223175    -0.000002    -0.003628   121.219547
	   44 B(7,8,18)       =    118.064173    -0.000007    -0.030449   118.033724
	   45 B(7,12,11)      =    120.396138     0.000004     0.005161   120.401299
	   46 B(8,7,12)       =    118.813519    -0.000007    -0.006270   118.807249
	   47 B(8,9,10)       =    119.764118     0.000004     0.004556   119.768674
	   48 B(8,9,17)       =    120.236450     0.000004     0.024977   120.261426
	   49 B(9,8,18)       =    120.712615     0.000009     0.034075   120.746690
	   50 B(9,10,11)      =    119.704771     0.000002     0.004589   119.709360
	   51 B(9,10,13)      =    116.121088     0.000008     0.013091   116.134179
	   52 B(10,9,17)      =    119.998540    -0.000008    -0.029537   119.969003
	   53 B(10,11,12)     =    120.093882    -0.000001    -0.004380   120.089502
	   54 B(10,11,20)     =    121.044202    -0.000011    -0.034317   121.009885
	   55 B(10,13,14)     =    103.966971    -0.000027    -0.065836   103.901134
	   56 B(11,10,13)     =    124.146799    -0.000010    -0.017684   124.129115
	   57 B(12,1,19)      =    118.561334    -0.000001    -0.002244   118.559091
	   58 B(12,11,20)     =    118.861845     0.000012     0.038693   118.900538
	   59 B(13,14,21)     =    111.895820    -0.000001     0.003337   111.899156
	   60 B(13,14,22)     =    111.590520    -0.000002    -0.002085   111.588435
	   61 B(13,14,23)     =    105.510754     0.000001     0.024280   105.535034
	   62 B(21,14,22)     =    110.660628    -0.000002    -0.033781   110.626847
	   63 B(21,14,23)     =    108.423962     0.000001     0.004507   108.428469
	   64 B(22,14,23)     =    108.527203     0.000004     0.007145   108.534348
	   65 D(1,2,3,4)      =    121.088642    -0.000000    -0.104477   120.984165
	   66 D(1,2,3,5)      =   -122.814740    -0.000000    -0.105407  -122.920147
	   67 D(1,2,3,6)      =     -0.781523     0.000001    -0.066981    -0.848505
	   68 D(1,12,7,6)     =     -0.213422    -0.000000    -0.010090    -0.223513
	   69 D(1,12,7,8)     =    179.728040    -0.000000    -0.019559   179.708480
	   70 D(1,12,11,10)   =    179.779665     0.000000     0.015715   179.795380
	   71 D(1,12,11,20)   =     -0.125019     0.000000     0.018934    -0.106085
	   72 D(2,1,12,7)     =      0.199545    -0.000000     0.002208     0.201753
	   73 D(2,1,12,11)    =    179.882951    -0.000000     0.000601   179.883552
	   74 D(2,3,6,7)      =      0.768151    -0.000001     0.060641     0.828792
	   75 D(2,3,6,16)     =   -179.556757     0.000001     0.261358  -179.295399
	   76 D(3,2,1,12)     =      0.318638    -0.000000     0.037413     0.356051
	   77 D(3,2,1,19)     =   -179.773030    -0.000000    -0.025642  -179.798672
	   78 D(3,6,7,8)      =    179.779318     0.000001    -0.013284   179.766034
	   79 D(3,6,7,12)     =     -0.279987     0.000001    -0.022874    -0.302861
	   80 D(4,3,2,15)     =    -58.693493    -0.000001    -0.260109   -58.953603
	   81 D(4,3,6,7)      =   -120.694316    -0.000001     0.092255  -120.602062
	   82 D(4,3,6,16)     =     58.980776     0.000001     0.292971    59.273747
	   83 D(5,3,2,15)     =     57.403125    -0.000001    -0.261039    57.142085
	   84 D(5,3,6,7)      =    122.396797    -0.000000     0.104936   122.501733
	   85 D(5,3,6,16)     =    -57.928111     0.000002     0.305653   -57.622458
	   86 D(6,3,2,15)     =    179.436341     0.000000    -0.222614   179.213728
	   87 D(6,7,8,9)      =   -179.910502     0.000000     0.002724  -179.907778
	   88 D(6,7,8,18)     =      0.020096     0.000000     0.001099     0.021195
	   89 D(6,7,12,11)    =   -179.891323    -0.000000    -0.008425  -179.899748
	   90 D(7,8,9,10)     =      0.138120    -0.000000    -0.002554     0.135566
	   91 D(7,8,9,17)     =    179.794483    -0.000000    -0.003433   179.791051
	   92 D(7,12,1,19)    =   -179.705403    -0.000000     0.067572  -179.637831
	   93 D(7,12,11,10)   =     -0.535116     0.000000     0.014098    -0.521018
	   94 D(7,12,11,20)   =    179.560200     0.000000     0.017317   179.577517
	   95 D(8,7,6,16)     =      0.127694    -0.000002    -0.228446    -0.100752
	   96 D(8,7,12,11)    =      0.050139    -0.000000    -0.017894     0.032245
	   97 D(8,9,10,11)    =     -0.621824    -0.000000    -0.001604    -0.623428
	   98 D(8,9,10,13)    =   -178.798446     0.000000    -0.001139  -178.799584
	   99 D(9,8,7,12)     =      0.147482     0.000000     0.012085     0.159567
	  100 D(9,10,11,12)   =      0.818801    -0.000000    -0.004311     0.814490
	  101 D(9,10,11,20)   =   -179.278630    -0.000000    -0.007528  -179.286158
	  102 *D(9,10,13,14)  =   -175.930270     0.000000    -0.000000  -175.930270
	  103 D(10,9,8,18)    =   -179.790648     0.000000    -0.000840  -179.791488
	  104 *D(10,13,14,21) =    -65.423493     0.000000    -0.000000   -65.423493
	  105 D(10,13,14,22)  =     59.187926    -0.000001    -0.043566    59.144360
	  106 D(10,13,14,23)  =    176.864196    -0.000000    -0.021724   176.842472
	  107 D(11,10,9,17)   =    179.720985     0.000000    -0.000917   179.720068
	  108 *D(11,10,13,14) =      5.983447     0.000000     0.000000     5.983447
	  109 D(11,12,1,19)   =     -0.021997     0.000000     0.065965     0.043968
	  110 D(12,1,2,15)    =   -179.903188     0.000001     0.195892  -179.707297
	  111 D(12,7,6,16)    =   -179.931610    -0.000002    -0.238036  -180.169647
	  112 D(12,7,8,18)    =   -179.921920     0.000000     0.010461  -179.911459
	  113 D(12,11,10,13)  =    178.840558    -0.000000    -0.004180   178.836378
	  114 D(13,10,9,17)   =      1.544364     0.000000    -0.000452     1.543912
	  115 D(13,10,11,20)  =     -1.256873    -0.000000    -0.007397    -1.264270
	  116 D(15,2,1,19)    =      0.005144     0.000001     0.132836     0.137980
	  117 D(17,9,8,18)    =     -0.134284     0.000000    -0.001719    -0.136003
	 ---------------------------------------------------------------------------
	Successfully symmetrized geometry.

  ==> Convergence Check <==

  Measures of convergence in internal coordinates in au.
  Criteria marked as inactive (o), active & met (*), and active & unmet ( ).
  ---------------------------------------------------------------------------------------------
   Step     Total Energy     Delta E     MAX Force     RMS Force      MAX Disp      RMS Disp   
  ---------------------------------------------------------------------------------------------
    Convergence Criteria             o    2.50e-03 *    1.70e-03 *    1.00e-02 *    6.70e-03 *
  ---------------------------------------------------------------------------------------------
      3   -1188.12266164   -2.81e-06 o    6.24e-04 *    1.18e-04 *    5.33e-03 *    1.34e-03 *  ~
  ---------------------------------------------------------------------------------------------


  **** Optimization is complete! (in 3 steps) ****

  ==> Optimization Summary <==

  Measures of convergence in internal coordinates in au.
  --------------------------------------------------------------------------------------------------------------- ~
   Step         Total Energy             Delta E       MAX Force       RMS Force        MAX Disp        RMS Disp  ~
  --------------------------------------------------------------------------------------------------------------- ~
      1   -1188.122650523695  -1188.122650523695      0.00115454      0.00030726      0.00771192      0.00178861  ~
      2   -1188.122658824199     -0.000008300504      0.00064845      0.00016227      0.00828881      0.00226535  ~
      3   -1188.122661637272     -0.000002813073      0.00062412      0.00011833      0.00533465      0.00134418  ~
  --------------------------------------------------------------------------------------------------------------- ~

	Writing optimization data to binary file.
	Final energy is  -1188.1226616372719
	Final (previous) structure:
	Cartesian Geometry (in Angstrom)
	    N    -0.4240497735  -1.2851509617   0.9367326571
	    C    -1.7581234841  -1.2409715784   1.2444716481
	    C    -2.5472464237  -0.0421943296   0.6653936533
	    F    -3.5391341490  -0.5515546475  -0.1056515678
	    F    -3.1124200972   0.6088564623   1.7107914710
	    C    -1.7673348864   0.9986855726  -0.1840416618
	    C    -0.3367939541   0.7564786973  -0.3889314362
	    C     0.4278453071   1.6541210052  -1.1501065749
	    C     1.7736927108   1.4474119148  -1.3585175562
	    C     2.4018902356   0.3144301450  -0.8030403104
	    C     1.6579173502  -0.5817215482  -0.0356123793
	    C     0.2933620777  -0.3655204135   0.1664927296
	    S     4.1299946297   0.1619477258  -1.1017245141
	    C     4.5612153420  -1.4332574558  -0.3656985170
	    O    -2.3031429171  -2.0810483368   1.9223721233
	    O    -2.3780381920   1.9434355922  -0.6330657150
	    H     2.3493046235   2.1505666464  -1.9529565565
	    H    -0.0723045264   2.5197241953  -1.5735315636
	    H     0.0686248984  -2.0808437302   1.3244889746
	    H     2.1218612661  -1.4546555139   0.4118922599
	    H     4.4323465012  -1.4295093615   0.7200914840
	    H     3.9948719581  -2.2515472165  -0.8185739583
	    H     5.6208387479  -1.5802679503  -0.5871163763
	Saving final (previous) structure.
			--------------------------
			 OPTKING Finished Execution 
			--------------------------

    Final optimized geometry and variables:
    Molecular point group: c1
    Full point group: C1

    Geometry (in Angstrom), charge = 0, multiplicity = 1:

    N           -0.424049775192    -1.285150966789     0.936732660734
    C           -1.758123490993    -1.240971583325     1.244471652943
    C           -2.547246433686    -0.042194329814     0.665393655953
    F           -3.539134162894    -0.551554649649    -0.105651568239
    F           -3.112420109399     0.608856464670     1.710791477752
    C           -1.767334893388     0.998685576504    -0.184041662564
    C           -0.336793955437     0.756478700273    -0.388931437733
    C            0.427845308741     1.654121011658    -1.150106579389
    C            1.773692717791     1.447411920506    -1.358517561526
    C            2.401890245044     0.314430146225    -0.803040313513
    C            1.657917356712    -0.581721550487    -0.035612379399
    C            0.293362078820    -0.365520414902     0.166492730234
    S            4.129994645964     0.161947726462    -1.101724518445
    C            4.561215359926    -1.433257461452    -0.365698518464
    O           -2.303142926144    -2.081048344933     1.922372130815
    O           -2.378038201300     1.943435599859    -0.633065717530
    H            2.349304632734     2.150566654894    -1.952956564161
    H           -0.072304526681     2.519724205236    -1.573531569802
    H            0.068624898680    -2.080843738418     1.324488979756
    H            2.121861274427    -1.454655519595     0.411892261510
    H            4.432346518602    -1.429509367088     0.720091486823
    H            3.994871973775    -2.251547225314    -0.818573961565
    H            5.620838770042    -1.580267956506    -0.587116378636

	Removing binary optimization data file.
	Cleaning optimization helper files.

    Psi4 stopped on: Tuesday, 22 June 2021 12:14AM
    Psi4 wall time for execution: 0:13:34.85

*** Psi4 exiting successfully. Buy a developer a beer!
