
    -----------------------------------------------------------------------
          Psi4: An Open-Source Ab Initio Electronic Structure Package
                               Psi4 1.3.2 release

                         Git: Rev {HEAD} ecbda83 


    R. M. Parrish, L. A. Burns, D. G. A. Smith, A. C. Simmonett,
    A. E. DePrince III, E. G. Hohenstein, U. Bozkaya, A. Yu. Sokolov,
    R. Di Remigio, R. M. Richard, J. F. Gonthier, A. M. James,
    H. R. McAlexander, A. Kumar, M. Saitow, X. Wang, B. P. Pritchard,
    P. Verma, H. F. Schaefer III, K. Patkowski, R. A. King, E. F. Valeev,
    F. A. Evangelista, J. M. Turney, T. D. Crawford, and C. D. Sherrill,
    J. Chem. Theory Comput. 13(7) pp 3185--3197 (2017).
    (doi: 10.1021/acs.jctc.7b00174)


                         Additional Contributions by
    P. Kraus, H. Kruse, M. H. Lechner, M. C. Schieber, R. A. Shaw,
    A. Alenaizan, R. Galvelis, Z. L. Glick, S. Lehtola, and J. P. Misiewicz

    -----------------------------------------------------------------------


    Psi4 started on: Tuesday, 22 June 2021 07:27AM

    Process ID: 31881
    Host:       cpu-spot-dy-c5n2xlarge-1
    PSIDATADIR: /fsx/users/francis/anaconda3/envs/poltype-dev/share/psi4
    Memory:     500.0 MiB
    Threads:    1
    
  ==> Input File <==

--------------------------------------------------------------------------
molecule { 
0 1
 N   -0.525572   -1.563758   -0.377253
 C   -1.758844   -1.792180    0.175844
 C   -2.333703   -0.641680    1.036146
 F   -3.452221   -0.195557    0.401409
 F   -2.698928   -1.164370    2.230622
 C   -1.427477    0.595830    1.298887
 C   -0.139672    0.643280    0.586100
 C    0.692783    1.759004    0.724463
 C    1.906326    1.830679    0.059790
 C    2.310800    0.761580   -0.750593
 C    1.500582   -0.364676   -0.881644
 C    0.270203   -0.424819   -0.226839
 S    3.893235    0.832172   -1.569376
 C    3.358588    0.845221   -3.303902
 O   -2.377778   -2.814664    0.003879
 O   -1.829792    1.454263    2.049405
 H    2.540621    2.705351    0.154266
 H    0.354909    2.572277    1.358107
 H   -0.175456   -2.323841   -0.948498
 H    1.833828   -1.203918   -1.485085
 H    2.868684   -0.090085   -3.585286
 H    2.693836    1.687896   -3.499569
 H    4.262614    0.958865   -3.907317
}
memory 16GB
set_num_threads(8)
psi4_io.set_default_path("/scratch/Psi4-ligand")
set freeze_core True
E, wfn = energy('wb97x-d/6-311++g**',return_wfn=True)
oeprop(wfn,"WIBERG_LOWDIN_INDICES")
clean()
--------------------------------------------------------------------------

  Memory set to  14.901 GiB by Python driver.
  Threads set to 8 by Python driver.

*** tstart() called on cpu-spot-dy-c5n2xlarge-1
*** at Tue Jun 22 07:27:49 2021

   => Loading Basis Set <=

    Name: 6-311++G**
    Role: ORBITAL
    Keyword: BASIS
    atoms 1             entry N          line   140 file /fsx/users/francis/anaconda3/envs/poltype-dev/share/psi4/basis/6-311ppgss.gbs 
    atoms 2-3, 6-12, 14 entry C          line   119 file /fsx/users/francis/anaconda3/envs/poltype-dev/share/psi4/basis/6-311ppgss.gbs 
    atoms 4-5           entry F          line   182 file /fsx/users/francis/anaconda3/envs/poltype-dev/share/psi4/basis/6-311ppgss.gbs 
    atoms 13            entry S          line   419 file /fsx/users/francis/anaconda3/envs/poltype-dev/share/psi4/basis/6-311ppgss.gbs 
    atoms 15-16         entry O          line   161 file /fsx/users/francis/anaconda3/envs/poltype-dev/share/psi4/basis/6-311ppgss.gbs 
    atoms 17-23         entry H          line    42 file /fsx/users/francis/anaconda3/envs/poltype-dev/share/psi4/basis/6-311ppgss.gbs 


         ---------------------------------------------------------
                                   SCF
               by Justin Turney, Rob Parrish, Andy Simmonett
                          and Daniel G. A. Smith
                              RKS Reference
                        8 Threads,  15258 MiB Core
         ---------------------------------------------------------

  ==> Geometry <==

    Molecular point group: c1
    Full point group: C1

    Geometry (in Angstrom), charge = 0, multiplicity = 1:

       Center              X                  Y                   Z               Mass       
    ------------   -----------------  -----------------  -----------------  -----------------
         N           -0.525572065042    -1.563758065866    -0.377253020153    14.003074004430
         C           -1.758844065042    -1.792180065866     0.175843979847    12.000000000000
         C           -2.333703065042    -0.641680065866     1.036145979847    12.000000000000
         F           -3.452221065042    -0.195557065866     0.401408979847    18.998403162730
         F           -2.698928065042    -1.164370065866     2.230621979847    18.998403162730
         C           -1.427477065042     0.595829934134     1.298886979847    12.000000000000
         C           -0.139672065042     0.643279934134     0.586099979847    12.000000000000
         C            0.692782934958     1.759003934134     0.724462979847    12.000000000000
         C            1.906325934958     1.830678934134     0.059789979847    12.000000000000
         C            2.310799934958     0.761579934134    -0.750593020153    12.000000000000
         C            1.500581934958    -0.364676065866    -0.881644020153    12.000000000000
         C            0.270202934958    -0.424819065866    -0.226839020153    12.000000000000
         S            3.893234934958     0.832171934134    -1.569376020153    31.972071174400
         C            3.358587934958     0.845220934134    -3.303902020153    12.000000000000
         O           -2.377778065042    -2.814664065866     0.003878979847    15.994914619570
         O           -1.829792065042     1.454262934134     2.049404979847    15.994914619570
         H            2.540620934958     2.705350934134     0.154265979847     1.007825032230
         H            0.354908934958     2.572276934134     1.358106979847     1.007825032230
         H           -0.175456065042    -2.323841065866    -0.948498020153     1.007825032230
         H            1.833827934958    -1.203918065866    -1.485085020153     1.007825032230
         H            2.868683934958    -0.090085065866    -3.585286020153     1.007825032230
         H            2.693835934958     1.687895934134    -3.499569020153     1.007825032230
         H            4.262613934958     0.958864934134    -3.907317020153     1.007825032230

  Running in c1 symmetry.

  Rotational constants: A =      0.03629  B =      0.00861  C =      0.00743 [cm^-1]
  Rotational constants: A =   1087.81535  B =    258.00008  C =    222.87312 [MHz]
  Nuclear repulsion = 1190.110525168191543

  Charge       = 0
  Multiplicity = 1
  Electrons    = 124
  Nalpha       = 62
  Nbeta        = 62

  ==> Algorithm <==

  SCF Algorithm Type is DF.
  DIIS enabled.
  MOM disabled.
  Fractional occupation disabled.
  Guess Type is SAD.
  Energy threshold   = 1.00e-06
  Density threshold  = 1.00e-06
  Integral threshold = 0.00e+00

  ==> Primary Basis <==

  Basis Set: 6-311++G**
    Blend: 6-311++G**
    Number of shells: 199
    Number of basis function: 409
    Number of Cartesian functions: 425
    Spherical Harmonics?: true
    Max angular momentum: 2

  ==> DFT Potential <==

   => Composite Functional: WB97X-D <= 

    wB97X-D Hyb-GGA Exchange-Correlation Functional

    J.-D. Chai and M. Head-Gordon, Phys. Chem. Chem. Phys. 10, 6615 (2008)

    Deriv               =              1
    GGA                 =           TRUE
    Meta                =          FALSE

    Exchange Hybrid     =           TRUE
    MP2 Hybrid          =          FALSE

   => Exchange-Correlation Functionals <=

    1.0000   wB97D range-separated functional

   => Exact (HF) Exchange <=

    0.7780            HF,LR [omega = 0.2000]
    0.2220               HF 

   => Molecular Quadrature <=

    Radial Scheme          =       TREUTLER
    Pruning Scheme         =           FLAT
    Nuclear Scheme         =       TREUTLER

    BS radius alpha        =              1
    Pruning alpha          =              1
    Radial Points          =             75
    Spherical Points       =            302
    Total Points           =         520866
    Total Blocks           =           3875
    Max Points             =            256
    Max Functions          =            318

   => WB97X-D: Empirical Dispersion <=

    Chai and Head-Gordon Dispersion Correction
    Chai, J.-D.; Head-Gordon, M. (2010), J. Chem. Phys., 132: 6615-6620

        s6 =       1.000000

   => Loading Basis Set <=

    Name: (6-311++G** AUX)
    Role: JKFIT
    Keyword: DF_BASIS_SCF
    atoms 1             entry N          line   224 file /fsx/users/francis/anaconda3/envs/poltype-dev/share/psi4/basis/aug-cc-pvtz-jkfit.gbs 
    atoms 2-3, 6-12, 14 entry C          line   162 file /fsx/users/francis/anaconda3/envs/poltype-dev/share/psi4/basis/aug-cc-pvtz-jkfit.gbs 
    atoms 4-5           entry F          line   348 file /fsx/users/francis/anaconda3/envs/poltype-dev/share/psi4/basis/aug-cc-pvtz-jkfit.gbs 
    atoms 13            entry S          line   730 file /fsx/users/francis/anaconda3/envs/poltype-dev/share/psi4/basis/aug-cc-pvtz-jkfit.gbs 
    atoms 15-16         entry O          line   286 file /fsx/users/francis/anaconda3/envs/poltype-dev/share/psi4/basis/aug-cc-pvtz-jkfit.gbs 
    atoms 17-23         entry H          line    70 file /fsx/users/francis/anaconda3/envs/poltype-dev/share/psi4/basis/aug-cc-pvtz-jkfit.gbs 

  ==> Pre-Iterations <==

   -------------------------------------------------------
    Irrep   Nso     Nmo     Nalpha   Nbeta   Ndocc  Nsocc
   -------------------------------------------------------
     A        409     409       0       0       0       0
   -------------------------------------------------------
    Total     409     409      62      62      62       0
   -------------------------------------------------------

  ==> Integral Setup <==

  ==> DiskDFJK: Density-Fitted J/K Matrices <==

    J tasked:                  Yes
    K tasked:                  Yes
    wK tasked:                 Yes
    Omega:               2.000E-01
    OpenMP threads:              8
    Integrals threads:           8
    Memory [MiB]:             7940
    Algorithm:                Core
    Integral Cache:           NONE
    Schwarz Cutoff:          1E-12
    Fitting Condition:       1E-10

   => Auxiliary Basis Set <=

  Basis Set: (6-311++G** AUX)
    Blend: AUG-CC-PVTZ-JKFIT
    Number of shells: 590
    Number of basis function: 2028
    Number of Cartesian functions: 2530
    Spherical Harmonics?: true
    Max angular momentum: 4

  Cached 100.0% of DFT collocation blocks in 3.421 [GiB].

  Minimum eigenvalue in the overlap matrix is 2.5134709325E-07.
  Using Symmetric Orthogonalization.

  SCF Guess: Superposition of Atomic Densities via on-the-fly atomic UHF.

  ==> Iterations <==

                           Total Energy        Delta E     RMS |[F,P]|

   @DF-RKS iter SAD: -1187.84063335643896   -1.18784e+03   0.00000e+00 
   @DF-RKS iter   1: -1187.77384887423818    6.67845e-02   2.82241e-03 DIIS
   @DF-RKS iter   2: -1187.82409741616470   -5.02485e-02   2.86676e-03 DIIS
   @DF-RKS iter   3: -1188.29894191595645   -4.74844e-01   6.97230e-04 DIIS
   @DF-RKS iter   4: -1188.32741652628079   -2.84746e-02   1.93688e-04 DIIS
   @DF-RKS iter   5: -1188.33006335081996   -2.64682e-03   5.36389e-05 DIIS
   @DF-RKS iter   6: -1188.33034494273284   -2.81592e-04   1.74789e-05 DIIS
   @DF-RKS iter   7: -1188.33038217385365   -3.72311e-05   6.42097e-06 DIIS
   @DF-RKS iter   8: -1188.33039314074426   -1.09669e-05   2.47002e-06 DIIS
   @DF-RKS iter   9: -1188.33039576341389   -2.62267e-06   1.20974e-06 DIIS
   @DF-RKS iter  10: -1188.33039605185490   -2.88441e-07   5.82386e-07 DIIS
  Energy and wave function converged.


  ==> Post-Iterations <==

    Orbital Energies [Eh]
    ---------------------

    Doubly Occupied:                                                      

       1A    -89.040919     2A    -24.844112     3A    -24.842706  
       4A    -19.277525     5A    -19.264662     6A    -14.521037  
       7A    -10.490021     8A    -10.440779     9A    -10.418377  
      10A    -10.394564    11A    -10.365678    12A    -10.339915  
      13A    -10.336332    14A    -10.336076    15A    -10.333782  
      16A    -10.325636    17A     -8.081577    18A     -6.031146  
      19A     -6.027134    20A     -6.020133    21A     -1.392489  
      22A     -1.331759    23A     -1.197140    24A     -1.188272  
      25A     -1.102731    26A     -1.007148    27A     -0.941443  
      28A     -0.905867    29A     -0.891859    30A     -0.867541  
      31A     -0.793604    32A     -0.772146    33A     -0.757299  
      34A     -0.742650    35A     -0.700515    36A     -0.685493  
      37A     -0.673816    38A     -0.650001    39A     -0.631904  
      40A     -0.595129    41A     -0.583419    42A     -0.573428  
      43A     -0.566698    44A     -0.562768    45A     -0.559277  
      46A     -0.555799    47A     -0.541103    48A     -0.535532  
      49A     -0.529613    50A     -0.520635    51A     -0.513470  
      52A     -0.504182    53A     -0.495915    54A     -0.481605  
      55A     -0.475752    56A     -0.445287    57A     -0.427432  
      58A     -0.400135    59A     -0.378558    60A     -0.369918  
      61A     -0.343005    62A     -0.331109  

    Virtual:                                                              

      63A     -0.051286    64A      0.008147    65A      0.024873  
      66A      0.039321    67A      0.040962    68A      0.049417  
      69A      0.057273    70A      0.063239    71A      0.069421  
      72A      0.070972    73A      0.077477    74A      0.086517  
      75A      0.090775    76A      0.099646    77A      0.104278  
      78A      0.107050    79A      0.110425    80A      0.121437  
      81A      0.125760    82A      0.128697    83A      0.131857  
      84A      0.137850    85A      0.138994    86A      0.146908  
      87A      0.148714    88A      0.155196    89A      0.157780  
      90A      0.163097    91A      0.165594    92A      0.171894  
      93A      0.178228    94A      0.181853    95A      0.185966  
      96A      0.186882    97A      0.188382    98A      0.191403  
      99A      0.195702   100A      0.196741   101A      0.206995  
     102A      0.208620   103A      0.212117   104A      0.215844  
     105A      0.223844   106A      0.230406   107A      0.234913  
     108A      0.238433   109A      0.239343   110A      0.242322  
     111A      0.250255   112A      0.253036   113A      0.254680  
     114A      0.267419   115A      0.270213   116A      0.271276  
     117A      0.274811   118A      0.283238   119A      0.288111  
     120A      0.294890   121A      0.296812   122A      0.300378  
     123A      0.304462   124A      0.308777   125A      0.311370  
     126A      0.317646   127A      0.322365   128A      0.328528  
     129A      0.333774   130A      0.337214   131A      0.342859  
     132A      0.351999   133A      0.355037   134A      0.359081  
     135A      0.361019   136A      0.371758   137A      0.376243  
     138A      0.377802   139A      0.381289   140A      0.386992  
     141A      0.389909   142A      0.398647   143A      0.402347  
     144A      0.411927   145A      0.419941   146A      0.427890  
     147A      0.428700   148A      0.434848   149A      0.440314  
     150A      0.447639   151A      0.458962   152A      0.461427  
     153A      0.467736   154A      0.475652   155A      0.492111  
     156A      0.502286   157A      0.511501   158A      0.513812  
     159A      0.533260   160A      0.540086   161A      0.542351  
     162A      0.548001   163A      0.576356   164A      0.580458  
     165A      0.601914   166A      0.604181   167A      0.609984  
     168A      0.618428   169A      0.623912   170A      0.628946  
     171A      0.639455   172A      0.649778   173A      0.656125  
     174A      0.676270   175A      0.684928   176A      0.689653  
     177A      0.696489   178A      0.704237   179A      0.725985  
     180A      0.729271   181A      0.744266   182A      0.746754  
     183A      0.749957   184A      0.759230   185A      0.763792  
     186A      0.767515   187A      0.781859   188A      0.788120  
     189A      0.797766   190A      0.805129   191A      0.814846  
     192A      0.827079   193A      0.836836   194A      0.851080  
     195A      0.870188   196A      0.884906   197A      0.894436  
     198A      0.905824   199A      0.914036   200A      0.929277  
     201A      0.943953   202A      0.944322   203A      0.947759  
     204A      0.957872   205A      0.972292   206A      0.988601  
     207A      0.994038   208A      1.000738   209A      1.018031  
     210A      1.025933   211A      1.031949   212A      1.046271  
     213A      1.059103   214A      1.066797   215A      1.089487  
     216A      1.105902   217A      1.119914   218A      1.131745  
     219A      1.138245   220A      1.161518   221A      1.173809  
     222A      1.183632   223A      1.186372   224A      1.203367  
     225A      1.208733   226A      1.224943   227A      1.227287  
     228A      1.262322   229A      1.275354   230A      1.290655  
     231A      1.292141   232A      1.311346   233A      1.320144  
     234A      1.338544   235A      1.358462   236A      1.381234  
     237A      1.404815   238A      1.468030   239A      1.471134  
     240A      1.483362   241A      1.496442   242A      1.514629  
     243A      1.521611   244A      1.541311   245A      1.559283  
     246A      1.574486   247A      1.577905   248A      1.588451  
     249A      1.599122   250A      1.603085   251A      1.617869  
     252A      1.632656   253A      1.635357   254A      1.651010  
     255A      1.656363   256A      1.669466   257A      1.679058  
     258A      1.686284   259A      1.698613   260A      1.703210  
     261A      1.731939   262A      1.764121   263A      1.775582  
     264A      1.779949   265A      1.791736   266A      1.810412  
     267A      1.821114   268A      1.828212   269A      1.847154  
     270A      1.859862   271A      1.888869   272A      1.906487  
     273A      1.922008   274A      1.932315   275A      1.944945  
     276A      1.948429   277A      1.972826   278A      1.990605  
     279A      1.998029   280A      2.006358   281A      2.018293  
     282A      2.027822   283A      2.041320   284A      2.055843  
     285A      2.075478   286A      2.080001   287A      2.093720  
     288A      2.107099   289A      2.126152   290A      2.161596  
     291A      2.182323   292A      2.207040   293A      2.237110  
     294A      2.251819   295A      2.270880   296A      2.306108  
     297A      2.311958   298A      2.320017   299A      2.324083  
     300A      2.363244   301A      2.424934   302A      2.475952  
     303A      2.516817   304A      2.524485   305A      2.528871  
     306A      2.542540   307A      2.591835   308A      2.611726  
     309A      2.614734   310A      2.636657   311A      2.647059  
     312A      2.686599   313A      2.750192   314A      2.755938  
     315A      2.789641   316A      2.792060   317A      2.805478  
     318A      2.811822   319A      2.826825   320A      2.840375  
     321A      2.849133   322A      2.884937   323A      2.907851  
     324A      2.914821   325A      2.923023   326A      2.945697  
     327A      2.954800   328A      2.971324   329A      2.984804  
     330A      3.026872   331A      3.034603   332A      3.045830  
     333A      3.058039   334A      3.085501   335A      3.097914  
     336A      3.125725   337A      3.166010   338A      3.216845  
     339A      3.288417   340A      3.302910   341A      3.307058  
     342A      3.359241   343A      3.414764   344A      3.423916  
     345A      3.429148   346A      3.480717   347A      3.527972  
     348A      3.538609   349A      3.600039   350A      3.628949  
     351A      3.648557   352A      3.689467   353A      3.707560  
     354A      3.779447   355A      3.808137   356A      3.817340  
     357A      3.843198   358A      3.848555   359A      3.852885  
     360A      3.896776   361A      3.913544   362A      3.947732  
     363A      3.973969   364A      4.001535   365A      4.021146  
     366A      4.073417   367A      4.112918   368A      4.172894  
     369A      4.242965   370A      4.298672   371A      4.358552  
     372A      4.519049   373A      4.816270   374A      4.886130  
     375A      4.915306   376A      5.001444   377A      5.143582  
     378A      5.153524   379A      5.205694   380A      5.324922  
     381A      5.335706   382A      5.831023   383A      5.882070  
     384A      6.438990   385A      6.471264   386A      6.528686  
     387A      6.573817   388A      6.660881   389A      6.863794  
     390A      8.100004   391A     17.510374   392A     17.572357  
     393A     17.644021   394A     23.630518   395A     23.739518  
     396A     23.968503   397A     23.999838   398A     24.021184  
     399A     24.031527   400A     24.042121   401A     24.136029  
     402A     24.184079   403A     24.274069   404A     35.755575  
     405A     50.138608   406A     50.156950   407A     66.889417  
     408A     66.969953   409A    189.362370  

    Final Occupation by Irrep:
              A 
    DOCC [    62 ]

  @DF-RKS Final Energy: -1188.33039605185490

   => Energetics <=

    Nuclear Repulsion Energy =           1190.1105251681915433
    One-Electron Energy =               -3995.1032675043770723
    Two-Electron Energy =                1706.4065659566419981
    DFT Exchange-Correlation Energy =     -89.7305349739862379
    Empirical Dispersion Energy =          -0.0136846983250731
    VV10 Nonlocal Energy =                  0.0000000000000000
    Total Energy =                      -1188.3303960518549047

Computation Completed


Properties will be evaluated at   0.000000,   0.000000,   0.000000 [a0]

Properties computed using the SCF density matrix

  Nuclear Dipole Moment: [e a0]
     X:    19.3667      Y:     5.3401      Z:   -13.6818

  Electronic Dipole Moment: [e a0]
     X:   -17.2496      Y:    -4.9851      Z:    12.0127

  Dipole Moment: [e a0]
     X:     2.1171      Y:     0.3550      Z:    -1.6691     Total:     2.7192

  Dipole Moment: [D]
     X:     5.3811      Y:     0.9023      Z:    -4.2425     Total:     6.9115


*** tstop() called on cpu-spot-dy-c5n2xlarge-1 at Tue Jun 22 07:29:19 2021
Module time:
	user time   =     650.87 seconds =      10.85 minutes
	system time =      10.84 seconds =       0.18 minutes
	total time  =         90 seconds =       1.50 minutes
Total time:
	user time   =     650.87 seconds =      10.85 minutes
	system time =      10.84 seconds =       0.18 minutes
	total time  =         90 seconds =       1.50 minutes


Properties will be evaluated at   0.000000,   0.000000,   0.000000 [a0]
OEProp: No title given, name of density matrix used for the following properties is 'SCF density'


  Wiberg Bond Indices using Orthogonal Lowdin Orbitals:

  Irrep: 1 Size: 23 x 23

                 1                   2                   3                   4                   5

    1     0.00000000000000     1.31819515569548     0.10156319907527     0.01426678421472     0.01239101929844
    2     1.31819515569548     0.00000000000000     0.88471585472628     0.11123277894151     0.10978000289497
    3     0.10156319907527     0.88471585472628     0.00000000000000     1.34945521238835     1.36745842173550
    4     0.01426678421472     0.11123277894151     1.34945521238835     0.00000000000000     0.13710127027549
    5     0.01239101929844     0.10978000289497     1.36745842173550     0.13710127027549     0.00000000000000
    6     0.03408746684396     0.07381582761215     0.89534343178925     0.11016767584943     0.10784988946087
    7     0.11824225558780     0.03589854779971     0.09860716802161     0.01394491377391     0.01245121831477
    8     0.01501442777559     0.00375392732554     0.01334155701364     0.00202893777509     0.00196067859727
    9     0.01522917146699     0.00589303906757     0.00241040474593     0.00034323903347     0.00036525233008
   10     0.01711922566377     0.00302535489116     0.00148142820929     0.00052763759862     0.00037289880975
   11     0.13234964296967     0.02598116355989     0.00417094819475     0.00054830117390     0.00046586156950
   12     1.18982330665782     0.09693277952903     0.03118282913927     0.00514268174755     0.00403243211389
   13     0.00271742869885     0.00084689043976     0.00037605846709     0.00012267258816     0.00008857605237
   14     0.00050809276907     0.00012131130658     0.00009451974830     0.00004330266145     0.00002934014227
   15     0.24790859145082     2.29554791634827     0.15106667618683     0.03740935966720     0.04085519506901
   16     0.00494507609019     0.01580285045978     0.15987737377292     0.04080403721715     0.04410153198959
   17     0.00073517591463     0.00023954399905     0.00051109220998     0.00006304978805     0.00007406198810
   18     0.00128758456994     0.00048562666878     0.00210590329289     0.00029106277462     0.00033884407034
   19     0.91347195162869     0.07309878393387     0.01373569406363     0.00163252671009     0.00176923447082
   20     0.02291631078590     0.00224408593012     0.00071882054374     0.00010198978358     0.00011227984519
   21     0.00017561103943     0.00004173393560     0.00002328787897     0.00000700503132     0.00000578507849
   22     0.00003974046993     0.00001229082561     0.00001445726548     0.00000450220840     0.00000352931867
   23     0.00006217474870     0.00001910815718     0.00001052576703     0.00000498960002     0.00000356184831

                 6                   7                   8                   9                  10

    1     0.03408746684396     0.11824225558780     0.01501442777559     0.01522917146699     0.01711922566377
    2     0.07381582761215     0.03589854779971     0.00375392732554     0.00589303906757     0.00302535489116
    3     0.89534343178925     0.09860716802161     0.01334155701364     0.00241040474593     0.00148142820929
    4     0.11016767584943     0.01394491377391     0.00202893777509     0.00034323903347     0.00052763759862
    5     0.10784988946087     0.01245121831477     0.00196067859727     0.00036525233008     0.00037289880975
    6     0.00000000000000     1.05325469569250     0.12036156471173     0.01874344956290     0.01559062733448
    7     1.05325469569250     0.00000000000000     1.35011645493627     0.13021627447368     0.11398796927049
    8     0.12036156471173     1.35011645493627     0.00000000000000     1.49356089180758     0.13762436985824
    9     0.01874344956290     0.13021627447368     1.49356089180758     0.00000000000000     1.40716411006100
   10     0.01559062733448     0.11398796927049     0.13762436985824     1.40716411006100     0.00000000000000
   11     0.01490470224594     0.12018440272493     0.12775796110087     0.13031347420645     1.44037982867337
   12     0.11457140145534     1.28862870116253     0.12451651916947     0.11374764655821     0.13059189650552
   13     0.00251543307976     0.01176807914046     0.02139001221773     0.16178797704397     1.26070588393369
   14     0.00086052755073     0.00489618101317     0.00315539665928     0.02516479501179     0.08810848008458
   15     0.01539058804307     0.00964498569148     0.00112705941112     0.00520530288882     0.00188979724895
   16     2.32977631931035     0.16259337303930     0.07513596541846     0.00533080760252     0.01691721229488
   17     0.00148790797372     0.01268793608139     0.08240320098973     0.86506194242882     0.07680033891360
   18     0.02036689737613     0.07735248140534     0.85335145854368     0.08034338829902     0.01224024607055
   19     0.00255644682358     0.01259266760842     0.00169433628410     0.00133017322824     0.00194134442448
   20     0.00168942301021     0.01132669050294     0.00567639482194     0.01208886113262     0.07500368160427
   21     0.00011093297603     0.00052350541143     0.00043714316262     0.00287865041011     0.01378580321652
   22     0.00008561400048     0.00048557375341     0.00044313637339     0.00449645682394     0.01743338764518
   23     0.00008777941490     0.00050147197627     0.00037388469133     0.00212292097265     0.01298878091381

                11                  12                  13                  14                  15

    1     0.13234964296967     1.18982330665782     0.00271742869885     0.00050809276907     0.24790859145082
    2     0.02598116355989     0.09693277952903     0.00084689043976     0.00012131130658     2.29554791634827
    3     0.00417094819475     0.03118282913927     0.00037605846709     0.00009451974830     0.15106667618683
    4     0.00054830117390     0.00514268174755     0.00012267258816     0.00004330266145     0.03740935966720
    5     0.00046586156950     0.00403243211389     0.00008857605237     0.00002934014227     0.04085519506901
    6     0.01490470224594     0.11457140145534     0.00251543307976     0.00086052755073     0.01539058804307
    7     0.12018440272493     1.28862870116253     0.01176807914046     0.00489618101317     0.00964498569148
    8     0.12775796110087     0.12451651916947     0.02139001221773     0.00315539665928     0.00112705941112
    9     0.13031347420645     0.11374764655821     0.16178797704397     0.02516479501179     0.00520530288882
   10     1.44037982867337     0.13059189650552     1.26070588393369     0.08810848008458     0.00188979724895
   11     0.00000000000000     1.37203026335994     0.15560740206369     0.04092363932702     0.01166783939896
   12     1.37203026335994     0.00000000000000     0.02203335443858     0.00402433363266     0.03029101996755
   13     0.15560740206369     0.02203335443858     0.00000000000000     1.24476336479264     0.00038964396176
   14     0.04092363932702     0.00402433363266     1.24476336479264     0.00000000000000     0.00007184628698
   15     0.01166783939896     0.03029101996755     0.00038964396176     0.00007184628698     0.00000000000000
   16     0.00416590318835     0.04222756977641     0.00250232323796     0.00109724957610     0.00557046141187
   17     0.01276195537619     0.00545303040291     0.03055499795466     0.00279298168410     0.00018306747911
   18     0.00547773939617     0.01189543682696     0.00207442133291     0.00034280577259     0.00019466124471
   19     0.02028216999387     0.06559155939666     0.00038302537883     0.00012902036355     0.02855745919218
   20     0.84770274957443     0.07688545779428     0.02556188698053     0.01015783465534     0.00063935779082
   21     0.01180768383474     0.00128481493019     0.06866979776072     0.94282244698856     0.00002872205314
   22     0.00617939259863     0.00044515180812     0.06578871308964     0.94252222204914     0.00000549196964
   23     0.00290412421653     0.00042435111683     0.07088205510512     0.94600025131341     0.00001653923037

                16                  17                  18                  19                  20

    1     0.00494507609019     0.00073517591463     0.00128758456994     0.91347195162869     0.02291631078590
    2     0.01580285045978     0.00023954399905     0.00048562666878     0.07309878393387     0.00224408593012
    3     0.15987737377292     0.00051109220998     0.00210590329289     0.01373569406363     0.00071882054374
    4     0.04080403721715     0.00006304978805     0.00029106277462     0.00163252671009     0.00010198978358
    5     0.04410153198959     0.00007406198810     0.00033884407034     0.00176923447082     0.00011227984519
    6     2.32977631931035     0.00148790797372     0.02036689737613     0.00255644682358     0.00168942301021
    7     0.16259337303930     0.01268793608139     0.07735248140534     0.01259266760842     0.01132669050294
    8     0.07513596541846     0.08240320098973     0.85335145854368     0.00169433628410     0.00567639482194
    9     0.00533080760252     0.86506194242882     0.08034338829902     0.00133017322824     0.01208886113262
   10     0.01691721229488     0.07680033891360     0.01224024607055     0.00194134442448     0.07500368160427
   11     0.00416590318835     0.01276195537619     0.00547773939617     0.02028216999387     0.84770274957443
   12     0.04222756977641     0.00545303040291     0.01189543682696     0.06559155939666     0.07688545779428
   13     0.00250232323796     0.03055499795466     0.00207442133291     0.00038302537883     0.02556188698053
   14     0.00109724957610     0.00279298168410     0.00034280577259     0.00012902036355     0.01015783465534
   15     0.00557046141187     0.00018306747911     0.00019466124471     0.02855745919218     0.00063935779082
   16     0.00000000000000     0.00034777284321     0.02120599034821     0.00051522843713     0.00057111290258
   17     0.00034777284321     0.00000000000000     0.00994234622880     0.00011185977917     0.00117450112086
   18     0.02120599034821     0.00994234622880     0.00000000000000     0.00060631888856     0.00046508622071
   19     0.00051522843713     0.00011185977917     0.00060631888856     0.00000000000000     0.00642002132231
   20     0.00057111290258     0.00117450112086     0.00046508622071     0.00642002132231     0.00000000000000
   21     0.00011071801438     0.00039515455983     0.00005483751385     0.00004484877375     0.00383210194926
   22     0.00009708041784     0.00057074250939     0.00005922248663     0.00001533443830     0.00098837616303
   23     0.00012513016403     0.00018561975281     0.00005489978663     0.00001170274476     0.00052360314642

                21                  22                  23

    1     0.00017561103943     0.00003974046993     0.00006217474870
    2     0.00004173393560     0.00001229082561     0.00001910815718
    3     0.00002328787897     0.00001445726548     0.00001052576703
    4     0.00000700503132     0.00000450220840     0.00000498960002
    5     0.00000578507849     0.00000352931867     0.00000356184831
    6     0.00011093297603     0.00008561400048     0.00008777941490
    7     0.00052350541143     0.00048557375341     0.00050147197627
    8     0.00043714316262     0.00044313637339     0.00037388469133
    9     0.00287865041011     0.00449645682394     0.00212292097265
   10     0.01378580321652     0.01743338764518     0.01298878091381
   11     0.01180768383474     0.00617939259863     0.00290412421653
   12     0.00128481493019     0.00044515180812     0.00042435111683
   13     0.06866979776072     0.06578871308964     0.07088205510512
   14     0.94282244698856     0.94252222204914     0.94600025131341
   15     0.00002872205314     0.00000549196964     0.00001653923037
   16     0.00011071801438     0.00009708041784     0.00012513016403
   17     0.00039515455983     0.00057074250939     0.00018561975281
   18     0.00005483751385     0.00005922248663     0.00005489978663
   19     0.00004484877375     0.00001533443830     0.00001170274476
   20     0.00383210194926     0.00098837616303     0.00052360314642
   21     0.00000000000000     0.03884275076011     0.04163448062914
   22     0.03884275076011     0.00000000000000     0.04175736762338
   23     0.04163448062914     0.04175736762338     0.00000000000000



  Atomic Valences: 

 #  #
 Irrep: 1
      1:  4.1630494
      2:  5.0576846
      3:  5.0782649
      4:  1.8252439
      5:  1.8416109
      6:  4.9336186
      7:  4.6399055
      8:  4.4352253
      9:  4.4837982
     10:  4.8456803
     11:  4.4885671
     12:  4.7317565
     13:  3.1515300
     14:  4.2586299
     15:  2.8836616
     16:  2.9338211
     17:  1.1045383
     18:  1.1005373
     19:  1.1464917
     20:  1.1068006
     21:  1.1275178
     22:  1.1202905
     23:  1.1206953


    Psi4 stopped on: Tuesday, 22 June 2021 07:29AM
    Psi4 wall time for execution: 0:01:29.84

*** Psi4 exiting successfully. Buy a developer a beer!
