
    -----------------------------------------------------------------------
          Psi4: An Open-Source Ab Initio Electronic Structure Package
                               Psi4 1.3.2 release

                         Git: Rev {HEAD} ecbda83 


    R. M. Parrish, L. A. Burns, D. G. A. Smith, A. C. Simmonett,
    A. E. DePrince III, E. G. Hohenstein, U. Bozkaya, A. Yu. Sokolov,
    R. Di Remigio, R. M. Richard, J. F. Gonthier, A. M. James,
    H. R. McAlexander, A. Kumar, M. Saitow, X. Wang, B. P. Pritchard,
    P. Verma, H. F. Schaefer III, K. Patkowski, R. A. King, E. F. Valeev,
    F. A. Evangelista, J. M. Turney, T. D. Crawford, and C. D. Sherrill,
    J. Chem. Theory Comput. 13(7) pp 3185--3197 (2017).
    (doi: 10.1021/acs.jctc.7b00174)


                         Additional Contributions by
    P. Kraus, H. Kruse, M. H. Lechner, M. C. Schieber, R. A. Shaw,
    A. Alenaizan, R. Galvelis, Z. L. Glick, S. Lehtola, and J. P. Misiewicz

    -----------------------------------------------------------------------


    Psi4 started on: Tuesday, 22 June 2021 04:51AM

    Process ID: 24661
    Host:       cpu-spot-dy-c5n2xlarge-1
    PSIDATADIR: /fsx/users/francis/anaconda3/envs/poltype-dev/share/psi4
    Memory:     500.0 MiB
    Threads:    1
    
  ==> Input File <==

--------------------------------------------------------------------------
molecule { 
0 1
 N   -1.057407   -1.465770    0.311409
 C   -2.380078   -1.135195    0.449108
 C   -2.729198    0.380454    0.280503
 F   -3.659608    0.481708   -0.729878
 F   -3.317419    0.801083    1.452048
 C   -1.549008    1.359832   -0.046665
 C   -0.188659    0.784397   -0.154073
 C    0.913394    1.617722   -0.443504
 C    2.208295    1.093783   -0.554354
 C    2.440368   -0.298928   -0.379166
 C    1.334269   -1.126954   -0.079540
 C    0.032315   -0.607633    0.028793
 S    4.004715   -1.148737   -0.460110
 C    5.342174    0.065673   -0.671572
 O   -3.211474   -1.998466    0.690649
 O   -1.759414    2.558948   -0.202069
 H    3.015346    1.786703   -0.780339
 H    0.730231    2.684132   -0.581148
 H   -0.897549   -2.456480    0.432883
 H    1.491942   -2.196312    0.070623
 H    5.968536    0.055914    0.225725
 H    5.946785   -0.231097   -1.534379
 H    4.959470    1.073164   -0.835909
}
set optking { 
  frozen_dihedral = ("
    11 10 13 14
    9 10 13 14
    21 14 13 10
  ")
}
set {
  geom_maxiter 400
  g_convergence GAU_LOOSE
  dynamic_level 1
}
memory 16GB
set_num_threads(8)
psi4_io.set_default_path("/scratch/Psi4-ligand")
for _ in range(1):
  try:
    set opt_coordinates both
    optimize('wb97x-d/6-31+G*')
    break
  except OptimizationConvergenceError:
    break
  else:
    try:
      set opt_coordinates cartesian
      optimize('wb97x-d/6-31+G*')
      break
    except OptimizationConvergenceError:
      pass
clean()
--------------------------------------------------------------------------

  Memory set to  14.901 GiB by Python driver.
  Threads set to 8 by Python driver.
gradient() will perform analytic gradient computation.

*** tstart() called on cpu-spot-dy-c5n2xlarge-1
*** at Tue Jun 22 04:51:57 2021

   => Loading Basis Set <=

    Name: 6-31+G*
    Role: ORBITAL
    Keyword: BASIS
    atoms 1             entry N          line   138 file /fsx/users/francis/anaconda3/envs/poltype-dev/share/psi4/basis/6-31pgs.gbs 
    atoms 2-3, 6-12, 14 entry C          line   119 file /fsx/users/francis/anaconda3/envs/poltype-dev/share/psi4/basis/6-31pgs.gbs 
    atoms 4-5           entry F          line   176 file /fsx/users/francis/anaconda3/envs/poltype-dev/share/psi4/basis/6-31pgs.gbs 
    atoms 13            entry S          line   344 file /fsx/users/francis/anaconda3/envs/poltype-dev/share/psi4/basis/6-31pgs.gbs 
    atoms 15-16         entry O          line   157 file /fsx/users/francis/anaconda3/envs/poltype-dev/share/psi4/basis/6-31pgs.gbs 
    atoms 17-23         entry H          line    46 file /fsx/users/francis/anaconda3/envs/poltype-dev/share/psi4/basis/6-31pgs.gbs 


         ---------------------------------------------------------
                                   SCF
               by Justin Turney, Rob Parrish, Andy Simmonett
                          and Daniel G. A. Smith
                              RKS Reference
                        8 Threads,  15258 MiB Core
         ---------------------------------------------------------

  ==> Geometry <==

    Molecular point group: c1
    Full point group: C1

    Geometry (in Angstrom), charge = 0, multiplicity = 1:

       Center              X                  Y                   Z               Mass       
    ------------   -----------------  -----------------  -----------------  -----------------
         N           -1.006538098540    -1.475656134385     0.355384576724    14.003074004430
         C           -2.329209098540    -1.145081134385     0.493083576724    12.000000000000
         C           -2.678329098540     0.370567865615     0.324478576724    12.000000000000
         F           -3.608739098540     0.471821865615    -0.685902423276    18.998403162730
         F           -3.266550098540     0.791196865615     1.496023576724    18.998403162730
         C           -1.498139098540     1.349945865615    -0.002689423276    12.000000000000
         C           -0.137790098540     0.774510865615    -0.110097423276    12.000000000000
         C            0.964262901460     1.607835865615    -0.399528423276    12.000000000000
         C            2.259163901460     1.083896865615    -0.510378423276    12.000000000000
         C            2.491236901460    -0.308814134385    -0.335190423276    12.000000000000
         C            1.385137901460    -1.136840134385    -0.035564423276    12.000000000000
         C            0.083183901460    -0.617519134385     0.072768576724    12.000000000000
         S            4.055583901460    -1.158623134385    -0.416134423276    31.972071174400
         C            5.393042901460     0.055786865615    -0.627596423276    12.000000000000
         O           -3.160605098540    -2.008352134385     0.734624576724    15.994914619570
         O           -1.708545098540     2.549061865615    -0.158093423276    15.994914619570
         H            3.066214901460     1.776816865615    -0.736363423276     1.007825032230
         H            0.781099901460     2.674245865615    -0.537172423276     1.007825032230
         H           -0.846680098540    -2.466366134385     0.476858576724     1.007825032230
         H            1.542810901460    -2.206198134385     0.114598576724     1.007825032230
         H            6.019404901460     0.046027865615     0.269700576724     1.007825032230
         H            5.997653901460    -0.240983134385    -1.490403423276     1.007825032230
         H            5.010338901460     1.063277865615    -0.791933423276     1.007825032230

  Running in c1 symmetry.

  Rotational constants: A =      0.03858  B =      0.00803  C =      0.00692 [cm^-1]
  Rotational constants: A =   1156.63112  B =    240.84427  C =    207.39095 [MHz]
  Nuclear repulsion = 1172.622176329703734

  Charge       = 0
  Multiplicity = 1
  Electrons    = 124
  Nalpha       = 62
  Nbeta        = 62

  ==> Algorithm <==

  SCF Algorithm Type is DF.
  DIIS enabled.
  MOM disabled.
  Fractional occupation disabled.
  Guess Type is SAD.
  Energy threshold   = 1.00e-08
  Density threshold  = 1.00e-08
  Integral threshold = 0.00e+00

  ==> Primary Basis <==

  Basis Set: 6-31+G*
    Blend: 6-31+G*
    Number of shells: 144
    Number of basis function: 322
    Number of Cartesian functions: 322
    Spherical Harmonics?: false
    Max angular momentum: 2

  ==> DFT Potential <==

   => Composite Functional: WB97X-D <= 

    wB97X-D Hyb-GGA Exchange-Correlation Functional

    J.-D. Chai and M. Head-Gordon, Phys. Chem. Chem. Phys. 10, 6615 (2008)

    Deriv               =              1
    GGA                 =           TRUE
    Meta                =          FALSE

    Exchange Hybrid     =           TRUE
    MP2 Hybrid          =          FALSE

   => Exchange-Correlation Functionals <=

    1.0000   wB97D range-separated functional

   => Exact (HF) Exchange <=

    0.7780            HF,LR [omega = 0.2000]
    0.2220               HF 

   => Molecular Quadrature <=

    Radial Scheme          =       TREUTLER
    Pruning Scheme         =           FLAT
    Nuclear Scheme         =       TREUTLER

    BS radius alpha        =              1
    Pruning alpha          =              1
    Radial Points          =             75
    Spherical Points       =            302
    Total Points           =         520858
    Total Blocks           =           3865
    Max Points             =            256
    Max Functions          =            284

   => WB97X-D: Empirical Dispersion <=

    Chai and Head-Gordon Dispersion Correction
    Chai, J.-D.; Head-Gordon, M. (2010), J. Chem. Phys., 132: 6615-6620

        s6 =       1.000000

   => Loading Basis Set <=

    Name: (6-31+G* AUX)
    Role: JKFIT
    Keyword: DF_BASIS_SCF
    atoms 1             entry N          line   252 file /fsx/users/francis/anaconda3/envs/poltype-dev/share/psi4/basis/heavy-aug-cc-pvdz-jkfit.gbs 
    atoms 2-3, 6-12, 14 entry C          line   194 file /fsx/users/francis/anaconda3/envs/poltype-dev/share/psi4/basis/heavy-aug-cc-pvdz-jkfit.gbs 
    atoms 4-5           entry F          line   368 file /fsx/users/francis/anaconda3/envs/poltype-dev/share/psi4/basis/heavy-aug-cc-pvdz-jkfit.gbs 
    atoms 13            entry S          line   730 file /fsx/users/francis/anaconda3/envs/poltype-dev/share/psi4/basis/heavy-aug-cc-pvdz-jkfit.gbs 
    atoms 15-16         entry O          line   310 file /fsx/users/francis/anaconda3/envs/poltype-dev/share/psi4/basis/heavy-aug-cc-pvdz-jkfit.gbs 
    atoms 17-23         entry H          line   116 file /fsx/users/francis/anaconda3/envs/poltype-dev/share/psi4/basis/heavy-aug-cc-pvdz-jkfit.gbs 

  ==> Pre-Iterations <==

   -------------------------------------------------------
    Irrep   Nso     Nmo     Nalpha   Nbeta   Ndocc  Nsocc
   -------------------------------------------------------
     A        322     322       0       0       0       0
   -------------------------------------------------------
    Total     322     322      62      62      62       0
   -------------------------------------------------------

  ==> Integral Setup <==

  ==> DiskDFJK: Density-Fitted J/K Matrices <==

    J tasked:                  Yes
    K tasked:                  Yes
    wK tasked:                 Yes
    Omega:               2.000E-01
    OpenMP threads:              8
    Integrals threads:           8
    Memory [MiB]:             8467
    Algorithm:                Core
    Integral Cache:           NONE
    Schwarz Cutoff:          1E-12
    Fitting Condition:       1E-10

   => Auxiliary Basis Set <=

  Basis Set: (6-31+G* AUX)
    Blend: HEAVY-AUG-CC-PVDZ-JKFIT
    Number of shells: 523
    Number of basis function: 1840
    Number of Cartesian functions: 1840
    Spherical Harmonics?: false
    Max angular momentum: 3

  Cached 100.0% of DFT collocation blocks in 2.907 [GiB].

  Minimum eigenvalue in the overlap matrix is 4.8103443650E-07.
  Using Symmetric Orthogonalization.

  SCF Guess: Superposition of Atomic Densities via on-the-fly atomic UHF.

  ==> Iterations <==

                           Total Energy        Delta E     RMS |[F,P]|

   @DF-RKS iter SAD: -1187.19414416342079   -1.18719e+03   0.00000e+00 
   @DF-RKS iter   1: -1187.53129595254813   -3.37152e-01   3.40538e-03 DIIS
   @DF-RKS iter   2: -1187.54111236231915   -9.81641e-03   3.71185e-03 DIIS
   @DF-RKS iter   3: -1188.08349133872321   -5.42379e-01   7.81318e-04 DIIS
   @DF-RKS iter   4: -1188.10750341576295   -2.40121e-02   2.69726e-04 DIIS
   @DF-RKS iter   5: -1188.11107917237655   -3.57576e-03   7.27725e-05 DIIS
   @DF-RKS iter   6: -1188.11148363367442   -4.04461e-04   2.38945e-05 DIIS
   @DF-RKS iter   7: -1188.11154517030832   -6.15366e-05   1.03810e-05 DIIS
   @DF-RKS iter   8: -1188.11156184394713   -1.66736e-05   3.91985e-06 DIIS
   @DF-RKS iter   9: -1188.11156470972014   -2.86577e-06   2.14490e-06 DIIS
   @DF-RKS iter  10: -1188.11156506317934   -3.53459e-07   7.21940e-07 DIIS
   @DF-RKS iter  11: -1188.11156511336094   -5.01816e-08   3.32237e-07 DIIS
   @DF-RKS iter  12: -1188.11156512390380   -1.05429e-08   1.51740e-07 DIIS
   @DF-RKS iter  13: -1188.11156512648904   -2.58524e-09   5.86648e-08 DIIS
   @DF-RKS iter  14: -1188.11156512679827   -3.09228e-10   2.46640e-08 DIIS
   @DF-RKS iter  15: -1188.11156512685807   -5.97993e-11   1.20019e-08 DIIS
   @DF-RKS iter  16: -1188.11156512686398   -5.91172e-12   6.40195e-09 DIIS
  Energy and wave function converged.


  ==> Post-Iterations <==

    Orbital Energies [Eh]
    ---------------------

    Doubly Occupied:                                                      

       1A    -89.086082     2A    -24.873067     3A    -24.872511  
       4A    -19.304416     5A    -19.293227     6A    -14.542158  
       7A    -10.509934     8A    -10.457994     9A    -10.434804  
      10A    -10.410942    11A    -10.395455    12A    -10.358821  
      13A    -10.355257    14A    -10.352454    15A    -10.352259  
      16A    -10.347577    17A     -8.103403    18A     -6.054224  
      19A     -6.049511    20A     -6.043562    21A     -1.381137  
      22A     -1.324806    23A     -1.188444    24A     -1.174238  
      25A     -1.091414    26A     -0.998797    27A     -0.939338  
      28A     -0.903446    29A     -0.885932    30A     -0.869418  
      31A     -0.798469    32A     -0.763331    33A     -0.750156  
      34A     -0.744405    35A     -0.693082    36A     -0.678438  
      37A     -0.665396    38A     -0.644104    39A     -0.628271  
      40A     -0.589704    41A     -0.584384    42A     -0.564172  
      43A     -0.561945    44A     -0.555570    45A     -0.553518  
      46A     -0.550689    47A     -0.547356    48A     -0.534909  
      49A     -0.521221    50A     -0.515946    51A     -0.506400  
      52A     -0.498968    53A     -0.490818    54A     -0.485751  
      55A     -0.474539    56A     -0.439207    57A     -0.429266  
      58A     -0.395504    59A     -0.394798    60A     -0.367146  
      61A     -0.339640    62A     -0.317308  

    Virtual:                                                              

      63A     -0.046031    64A      0.011605    65A      0.039000  
      66A      0.047547    67A      0.051942    68A      0.065296  
      69A      0.066507    70A      0.074859    71A      0.080239  
      72A      0.082669    73A      0.092647    74A      0.096191  
      75A      0.105180    76A      0.111032    77A      0.114704  
      78A      0.117352    79A      0.118692    80A      0.129959  
      81A      0.137869    82A      0.139092    83A      0.144611  
      84A      0.146543    85A      0.153415    86A      0.164672  
      87A      0.170645    88A      0.173196    89A      0.175977  
      90A      0.180233    91A      0.185566    92A      0.190140  
      93A      0.192047    94A      0.197666    95A      0.202269  
      96A      0.205881    97A      0.211014    98A      0.217305  
      99A      0.221264   100A      0.225601   101A      0.233497  
     102A      0.235736   103A      0.242379   104A      0.244209  
     105A      0.247536   106A      0.251096   107A      0.257564  
     108A      0.261193   109A      0.269659   110A      0.273604  
     111A      0.275824   112A      0.284587   113A      0.286931  
     114A      0.289427   115A      0.296433   116A      0.300470  
     117A      0.310636   118A      0.312795   119A      0.324090  
     120A      0.327419   121A      0.329297   122A      0.334724  
     123A      0.341834   124A      0.344485   125A      0.355167  
     126A      0.360489   127A      0.367498   128A      0.376819  
     129A      0.380167   130A      0.383557   131A      0.392167  
     132A      0.397179   133A      0.399767   134A      0.411315  
     135A      0.412620   136A      0.421645   137A      0.426104  
     138A      0.438197   139A      0.445172   140A      0.450124  
     141A      0.457728   142A      0.470028   143A      0.477275  
     144A      0.483408   145A      0.503615   146A      0.512041  
     147A      0.526118   148A      0.528686   149A      0.542288  
     150A      0.555112   151A      0.575202   152A      0.581036  
     153A      0.585439   154A      0.597406   155A      0.609201  
     156A      0.628602   157A      0.654760   158A      0.665117  
     159A      0.679678   160A      0.696093   161A      0.727293  
     162A      0.740580   163A      0.752414   164A      0.764594  
     165A      0.770262   166A      0.771296   167A      0.788191  
     168A      0.797797   169A      0.804458   170A      0.820691  
     171A      0.823253   172A      0.853407   173A      0.857363  
     174A      0.868105   175A      0.878769   176A      0.883209  
     177A      0.898164   178A      0.915782   179A      0.922057  
     180A      0.931561   181A      0.944929   182A      0.965804  
     183A      0.977822   184A      0.983247   185A      1.005994  
     186A      1.023787   187A      1.046702   188A      1.058629  
     189A      1.061230   190A      1.078742   191A      1.092868  
     192A      1.105220   193A      1.130849   194A      1.150759  
     195A      1.156860   196A      1.170514   197A      1.201989  
     198A      1.202098   199A      1.214244   200A      1.217786  
     201A      1.228967   202A      1.254471   203A      1.269916  
     204A      1.282595   205A      1.294329   206A      1.322320  
     207A      1.323194   208A      1.335338   209A      1.352849  
     210A      1.384674   211A      1.404114   212A      1.407093  
     213A      1.417094   214A      1.418265   215A      1.443425  
     216A      1.447006   217A      1.451597   218A      1.465621  
     219A      1.467272   220A      1.483985   221A      1.504533  
     222A      1.512129   223A      1.526534   224A      1.530331  
     225A      1.545748   226A      1.590679   227A      1.620751  
     228A      1.650042   229A      1.664088   230A      1.670975  
     231A      1.709874   232A      1.750198   233A      1.752856  
     234A      1.757677   235A      1.759215   236A      1.760597  
     237A      1.768378   238A      1.780880   239A      1.787954  
     240A      1.821720   241A      1.838984   242A      1.864373  
     243A      1.874057   244A      1.897109   245A      1.898978  
     246A      1.909950   247A      1.919519   248A      1.945636  
     249A      1.963409   250A      1.966806   251A      1.971298  
     252A      2.004052   253A      2.039306   254A      2.050042  
     255A      2.056883   256A      2.059269   257A      2.081745  
     258A      2.090700   259A      2.099300   260A      2.112370  
     261A      2.146174   262A      2.152596   263A      2.167106  
     264A      2.200604   265A      2.205615   266A      2.211033  
     267A      2.248418   268A      2.257633   269A      2.261485  
     270A      2.268605   271A      2.301819   272A      2.308508  
     273A      2.314843   274A      2.346720   275A      2.350384  
     276A      2.368173   277A      2.380786   278A      2.403267  
     279A      2.462878   280A      2.465494   281A      2.510697  
     282A      2.514806   283A      2.569362   284A      2.625866  
     285A      2.657310   286A      2.676051   287A      2.706346  
     288A      2.727591   289A      2.736696   290A      2.770171  
     291A      2.774994   292A      2.825349   293A      2.828868  
     294A      2.849979   295A      2.899302   296A      2.953335  
     297A      2.959629   298A      3.031559   299A      3.124495  
     300A      3.155280   301A      3.211061   302A      3.234233  
     303A      3.338518   304A      3.379848   305A      3.463181  
     306A      3.487544   307A      4.035185   308A      4.279828  
     309A      4.318957   310A      4.333561   311A      4.361083  
     312A      4.378089   313A      4.416806   314A      4.470018  
     315A      4.485948   316A      4.521578   317A      4.580651  
     318A      4.780457   319A      4.836366   320A      5.117135  
     321A      5.696782   322A      7.146226  

    Final Occupation by Irrep:
              A 
    DOCC [    62 ]

  @DF-RKS Final Energy: -1188.11156512686398

   => Energetics <=

    Nuclear Repulsion Energy =           1172.6221763297037342
    One-Electron Energy =               -3959.3293800879237097
    Two-Electron Energy =                1688.0466638837749542
    DFT Exchange-Correlation Energy =     -89.4377140271052298
    Empirical Dispersion Energy =          -0.0133112253137754
    VV10 Nonlocal Energy =                  0.0000000000000000
    Total Energy =                      -1188.1115651268642068

Computation Completed


Properties will be evaluated at   0.000000,   0.000000,   0.000000 [a0]

Properties computed using the SCF density matrix

  Nuclear Dipole Moment: [e a0]
     X:    26.7944      Y:    -0.6088      Z:    -3.2997

  Electronic Dipole Moment: [e a0]
     X:   -23.4695      Y:     0.2686      Z:     2.9418

  Dipole Moment: [e a0]
     X:     3.3248      Y:    -0.3402      Z:    -0.3579     Total:     3.3613

  Dipole Moment: [D]
     X:     8.4509      Y:    -0.8646      Z:    -0.9096     Total:     8.5436


*** tstop() called on cpu-spot-dy-c5n2xlarge-1 at Tue Jun 22 04:53:14 2021
Module time:
	user time   =     574.18 seconds =       9.57 minutes
	system time =      10.45 seconds =       0.17 minutes
	total time  =         77 seconds =       1.28 minutes
Total time:
	user time   =     574.18 seconds =       9.57 minutes
	system time =      10.45 seconds =       0.17 minutes
	total time  =         77 seconds =       1.28 minutes

*** tstart() called on cpu-spot-dy-c5n2xlarge-1
*** at Tue Jun 22 04:53:14 2021


         ------------------------------------------------------------
                                   SCF GRAD                          
                          Rob Parrish, Justin Turney,                
                       Andy Simmonett, and Alex Sokolov              
         ------------------------------------------------------------

  ==> Geometry <==

    Molecular point group: c1
    Full point group: C1

    Geometry (in Angstrom), charge = 0, multiplicity = 1:

       Center              X                  Y                   Z               Mass       
    ------------   -----------------  -----------------  -----------------  -----------------
         N           -1.006538098540    -1.475656134385     0.355384576724    14.003074004430
         C           -2.329209098540    -1.145081134385     0.493083576724    12.000000000000
         C           -2.678329098540     0.370567865615     0.324478576724    12.000000000000
         F           -3.608739098540     0.471821865615    -0.685902423276    18.998403162730
         F           -3.266550098540     0.791196865615     1.496023576724    18.998403162730
         C           -1.498139098540     1.349945865615    -0.002689423276    12.000000000000
         C           -0.137790098540     0.774510865615    -0.110097423276    12.000000000000
         C            0.964262901460     1.607835865615    -0.399528423276    12.000000000000
         C            2.259163901460     1.083896865615    -0.510378423276    12.000000000000
         C            2.491236901460    -0.308814134385    -0.335190423276    12.000000000000
         C            1.385137901460    -1.136840134385    -0.035564423276    12.000000000000
         C            0.083183901460    -0.617519134385     0.072768576724    12.000000000000
         S            4.055583901460    -1.158623134385    -0.416134423276    31.972071174400
         C            5.393042901460     0.055786865615    -0.627596423276    12.000000000000
         O           -3.160605098540    -2.008352134385     0.734624576724    15.994914619570
         O           -1.708545098540     2.549061865615    -0.158093423276    15.994914619570
         H            3.066214901460     1.776816865615    -0.736363423276     1.007825032230
         H            0.781099901460     2.674245865615    -0.537172423276     1.007825032230
         H           -0.846680098540    -2.466366134385     0.476858576724     1.007825032230
         H            1.542810901460    -2.206198134385     0.114598576724     1.007825032230
         H            6.019404901460     0.046027865615     0.269700576724     1.007825032230
         H            5.997653901460    -0.240983134385    -1.490403423276     1.007825032230
         H            5.010338901460     1.063277865615    -0.791933423276     1.007825032230

  Nuclear repulsion = 1172.622176329703734

  ==> Basis Set <==

  Basis Set: 6-31+G*
    Blend: 6-31+G*
    Number of shells: 144
    Number of basis function: 322
    Number of Cartesian functions: 322
    Spherical Harmonics?: false
    Max angular momentum: 2

  ==> DFJKGrad: Density-Fitted SCF Gradients <==

    Gradient:                    1
    J tasked:                  Yes
    K tasked:                  Yes
    wK tasked:                 Yes
    Omega:               2.000E-01
    OpenMP threads:              8
    Integrals threads:           8
    Memory [MiB]:            11444
    Schwarz Cutoff:          0E+00
    Fitting Condition:       1E-10

   => Auxiliary Basis Set <=

  Basis Set: (6-31+G* AUX)
    Blend: HEAVY-AUG-CC-PVDZ-JKFIT
    Number of shells: 523
    Number of basis function: 1840
    Number of Cartesian functions: 1840
    Spherical Harmonics?: false
    Max angular momentum: 3

  ==> DFT Potential <==

   => Composite Functional: WB97X-D <= 

    wB97X-D Hyb-GGA Exchange-Correlation Functional

    J.-D. Chai and M. Head-Gordon, Phys. Chem. Chem. Phys. 10, 6615 (2008)

    Deriv               =              1
    GGA                 =           TRUE
    Meta                =          FALSE

    Exchange Hybrid     =           TRUE
    MP2 Hybrid          =          FALSE

   => Exchange-Correlation Functionals <=

    1.0000   wB97D range-separated functional

   => Exact (HF) Exchange <=

    0.7780            HF,LR [omega = 0.2000]
    0.2220               HF 

   => Molecular Quadrature <=

    Radial Scheme          =       TREUTLER
    Pruning Scheme         =           FLAT
    Nuclear Scheme         =       TREUTLER

    BS radius alpha        =              1
    Pruning alpha          =              1
    Radial Points          =             75
    Spherical Points       =            302
    Total Points           =         520858
    Total Blocks           =           3865
    Max Points             =            256
    Max Functions          =            284


  -Total Gradient:
     Atom            X                  Y                   Z
    ------   -----------------  -----------------  -----------------
       1       -0.009460378361    -0.010854428299     0.002478241196
       2        0.007747205742     0.011412059566    -0.002694992914
       3        0.012805025457    -0.003892140615    -0.000640437521
       4       -0.012363249996     0.001397237820    -0.014239844683
       5       -0.007294220506     0.005537217047     0.015547504513
       6       -0.008492177013    -0.021452249263     0.004274608471
       7        0.000010998036     0.007395491929    -0.001112825379
       8       -0.004364055546     0.013646448780    -0.001328155613
       9        0.006540432419     0.004345605463    -0.000938451218
      10        0.009603027460    -0.011343789632    -0.003997882360
      11        0.003790970968    -0.002070332482     0.000798691938
      12       -0.001871890053    -0.005879838517     0.002473216715
      13        0.008025416983     0.001629207411     0.001059876103
      14        0.001004757325    -0.001212770781    -0.001289855348
      15       -0.008327564928    -0.021506592788     0.004269558131
      16        0.004351720051     0.028610558048    -0.004961707588
      17        0.000395030471     0.003170408581    -0.000459112943
      18       -0.000989182136     0.003927303866    -0.000542786818
      19       -0.004241256883     0.001683093481     0.000335086623
      20        0.000298220486    -0.002481894610     0.000309272667
      21        0.001706622793    -0.001482419782     0.001139208843
      22        0.002307052243    -0.000615216729    -0.000934617309
      23       -0.000467007064    -0.000263133429     0.000349862496


*** tstop() called on cpu-spot-dy-c5n2xlarge-1 at Tue Jun 22 04:53:37 2021
Module time:
	user time   =     149.06 seconds =       2.48 minutes
	system time =       3.73 seconds =       0.06 minutes
	total time  =         23 seconds =       0.38 minutes
Total time:
	user time   =     723.25 seconds =      12.05 minutes
	system time =      14.18 seconds =       0.24 minutes
	total time  =        100 seconds =       1.67 minutes

			-----------------------------------------
			 OPTKING 2.0: for geometry optimizations 
			  - R.A. King,  Bethel University        
			-----------------------------------------
	At level 1: Red. Int., RFO, no backsteps, dynamic trust

	Internal coordinates to be generated automatically.
	Detected frag 1 with atoms:  1 2 3 4 5 6 7 8 9 10 11 12 13 14 15 16 17 18 19 20
	 21 22 23
	---Fragment 1 Bond Connectivity---
	 1 : 2 12 19
	 2 : 1 3 15
	 3 : 2 4 5 6
	 4 : 3
	 5 : 3
	 6 : 3 7 16
	 7 : 6 8 12
	 8 : 7 9 18
	 9 : 8 10 17
	 10 : 9 11 13
	 11 : 10 12 20
	 12 : 1 7 11
	 13 : 10 14
	 14 : 13 21 22 23
	 15 : 2
	 16 : 6
	 17 : 9
	 18 : 8
	 19 : 1
	 20 : 11
	 21 : 14
	 22 : 14
	 23 : 14

	Assuming in current code that numbering for constraints corresponds to unified fragment.
	Frozen dihedral atom list: 
	    11    10    13    14
	     9    10    13    14
	    21    14    13    10
	---Fragment 1 Geometry and Gradient---
	 N          -1.9020813411       -2.7885859493        0.6715795192
	 C          -4.4015672852       -2.1638897354        0.9317929170
	 C          -5.0613084701        0.7002717769        0.6131756436
	 F          -6.8195285545        0.8916141060       -1.2961677288
	 F          -6.1728850613        1.4951453873        2.8270748372
	 C          -2.8310725941        2.5510279702       -0.0050822734
	 C          -0.2603855490        1.4636134172       -0.2080539771
	 C           1.8221927967        3.0383694407       -0.7549992993
	 C           4.2692010463        2.0482682243       -0.9644754403
	 C           4.7077554574       -0.5835741377       -0.6334180999
	 C           2.6175312798       -2.1483165024       -0.0672070198
	 C           0.1571947918       -1.1669420412        0.1375126805
	 S           7.6639428526       -2.1894804066       -0.7863800914
	 C          10.1913740666        0.1054218974       -1.1859853573
	 O          -5.9726780270       -3.7952354975        1.3882392550
	 O          -3.2286823092        4.8170288029       -0.2987532722
	 H           5.7943064056        3.3576972511       -1.3915251988
	 H           1.4760648904        5.0535922782       -1.0151087621
	 H          -1.5999935021       -4.6607565191        0.9011321106
	 H           2.9154900671       -4.1691102525        0.2165599244
	 H          11.3750267020        0.0869800602        0.5096602259
	 H          11.3339232690       -0.4553921248       -2.8164542864
	 H           9.4681683195        2.0093039613       -1.4965372796
	            -0.0094603784       -0.0108544283        0.0024782412
	             0.0077472057        0.0114120596       -0.0026949929
	             0.0128050255       -0.0038921406       -0.0006404375
	            -0.0123632500        0.0013972378       -0.0142398447
	            -0.0072942205        0.0055372170        0.0155475045
	            -0.0084921770       -0.0214522493        0.0042746085
	             0.0000109980        0.0073954919       -0.0011128254
	            -0.0043640555        0.0136464488       -0.0013281556
	             0.0065404324        0.0043456055       -0.0009384512
	             0.0096030275       -0.0113437896       -0.0039978824
	             0.0037909710       -0.0020703325        0.0007986919
	            -0.0018718901       -0.0058798385        0.0024732167
	             0.0080254170        0.0016292074        0.0010598761
	             0.0010047573       -0.0012127708       -0.0012898553
	            -0.0083275649       -0.0215065928        0.0042695581
	             0.0043517201        0.0286105580       -0.0049617076
	             0.0003950305        0.0031704086       -0.0004591129
	            -0.0009891821        0.0039273039       -0.0005427868
	            -0.0042412569        0.0016830935        0.0003350866
	             0.0002982205       -0.0024818946        0.0003092727
	             0.0017066228       -0.0014824198        0.0011392088
	             0.0023070522       -0.0006152167       -0.0009346173
	            -0.0004670071       -0.0002631334        0.0003498625

	Previous optimization step data not found.  Starting new optimization.

	---Fragment 1 Intrafragment Coordinates---
	 - Coordinate -           - BOHR/RAD -       - ANG/DEG -
	 R(1,2)           =         2.589476	       1.370292
	 R(1,12)          =         2.674991	       1.415544
	 R(1,19)          =         1.910229	       1.010850
	 R(2,3)           =         2.956382	       1.564450
	 R(2,15)          =         2.310416	       1.222619
	 R(3,4)           =         2.602603	       1.377238
	 R(3,5)           =         2.601687	       1.376754
	 R(3,6)           =         2.963358	       1.568142
	 R(6,7)           =         2.798589	       1.480949
	 R(6,16)          =         2.319288	       1.227314
	 R(7,8)           =         2.667609	       1.411638
	 R(7,12)          =         2.685817	       1.421273
	 R(8,9)           =         2.648024	       1.401274
	 R(8,18)          =         2.061209	       1.090745
	 R(9,10)          =         2.688591	       1.422741
	 R(9,17)          =         2.054975	       1.087446
	 R(10,11)         =         2.671713	       1.413810
	 R(10,13)         =         3.367696	       1.782108
	 R(11,12)         =         2.656739	       1.405886
	 R(11,20)         =         2.062259	       1.091300
	 R(13,14)         =         3.437175	       1.818874
	 R(14,21)         =         2.067991	       1.094334
	 R(14,22)         =         2.068420	       1.094561
	 R(14,23)         =         2.060154	       1.090187
	 B(1,2,3)         =         2.024494	     115.994954
	 B(1,2,15)        =         2.101215	     120.390733
	 B(1,12,7)        =         2.094106	     119.983421
	 B(1,12,11)       =         2.099444	     120.289298
	 B(2,1,12)        =         2.235578	     128.089167
	 B(2,1,19)        =         1.957361	     112.148506
	 B(2,3,4)         =         1.876588	     107.520598
	 B(2,3,5)         =         1.875099	     107.435257
	 B(2,3,6)         =         2.048341	     117.361304
	 B(3,2,15)        =         2.157476	     123.614274
	 B(3,6,7)         =         2.053048	     117.630963
	 B(3,6,16)        =         2.103183	     120.503533
	 B(4,3,5)         =         1.889338	     108.251093
	 B(4,3,6)         =         1.885416	     108.026359
	 B(5,3,6)         =         1.884176	     107.955335
	 B(6,7,8)         =         2.097412	     120.172856
	 B(6,7,12)        =         2.110693	     120.933774
	 B(7,6,16)        =         2.126949	     121.865209
	 B(7,8,9)         =         2.114049	     121.126098
	 B(7,8,18)        =         2.062276	     118.159695
	 B(7,12,11)       =         2.089619	     119.726364
	 B(8,7,12)        =         2.075080	     118.893310
	 B(8,9,10)        =         2.102501	     120.464440
	 B(8,9,17)        =         2.053306	     117.645784
	 B(9,8,18)        =         2.106859	     120.714104
	 B(9,10,11)       =         2.062115	     118.150469
	 B(9,10,13)       =         2.219788	     127.184471
	 B(10,9,17)       =         2.127371	     121.889394
	 B(10,11,12)      =         2.122932	     121.635036
	 B(10,11,20)      =         2.082909	     119.341881
	 B(10,13,14)      =         1.909610	     109.412607
	 B(11,10,13)      =         2.001050	     114.651697
	 B(12,1,19)       =         2.090239	     119.761872
	 B(12,11,20)      =         2.077344	     119.023038
	 B(13,14,21)      =         1.896097	     108.638377
	 B(13,14,22)      =         1.893143	     108.469081
	 B(13,14,23)      =         1.956725	     112.112080
	 B(21,14,22)      =         1.904725	     109.132715
	 B(21,14,23)      =         1.910034	     109.436911
	 B(22,14,23)      =         1.902494	     109.004904
	 D(1,2,3,4)       =         2.143036	     122.786918
	 D(1,2,3,5)       =        -2.109988	    -120.893414
	 D(1,2,3,6)       =         0.015106	       0.865482
	 D(1,12,7,6)      =         0.005511	       0.315748
	 D(1,12,7,8)      =        -3.134531	    -179.595422
	 D(1,12,11,10)    =         3.126011	     179.107242
	 D(1,12,11,20)    =        -0.014219	      -0.814713
	 D(2,1,12,7)      =        -0.004638	      -0.265743
	 D(2,1,12,11)     =        -3.140132	    -179.916336
	 D(2,3,6,7)       =        -0.014288	      -0.818668
	 D(2,3,6,16)      =         3.130683	     179.374944
	 D(3,2,1,12)      =        -0.006127	      -0.351051
	 D(3,2,1,19)      =         3.139814	     179.898085
	 D(3,6,7,8)       =        -3.139009	    -179.851991
	 D(3,6,7,12)      =         0.004153	       0.237970
	 D(4,3,2,15)      =        -0.999816	     -57.285223
	 D(4,3,6,7)       =        -2.137654	    -122.478528
	 D(4,3,6,16)      =         1.007318	      57.715084
	 D(5,3,2,15)      =         1.030345	      59.034446
	 D(5,3,6,7)       =         2.106102	     120.670763
	 D(5,3,6,16)      =        -1.032111	     -59.135624
	 D(6,3,2,15)      =        -3.127746	    -179.206659
	 D(6,7,8,9)       =        -3.137597	    -179.771046
	 D(6,7,8,18)      =         0.001969	       0.112791
	 D(6,7,12,11)     =         3.141040	     179.968317
	 D(7,8,9,10)      =         0.002410	       0.138057
	 D(7,8,9,17)      =         3.140147	     179.917170
	 D(7,12,1,19)     =         3.132315	     179.468442
	 D(7,12,11,10)    =        -0.009499	      -0.544249
	 D(7,12,11,20)    =         3.133456	     179.533796
	 D(8,7,6,16)      =        -0.000845	      -0.048409
	 D(8,7,12,11)     =         0.000997	       0.057148
	 D(8,9,10,11)     =        -0.010500	      -0.601612
	 D(8,9,10,13)     =        -3.127526	    -179.194026
	 D(9,8,7,12)      =         0.002458	       0.140818
	 D(9,10,11,12)    =         0.014127	       0.809417
	 D(9,10,11,20)    =        -3.128832	    -179.268870
	*D(9,10,13,14)    =         0.082776	       4.742725
	 D(10,9,8,18)     =        -3.137104	    -179.742820
	*D(10,13,14,21)   =         1.989334	     113.980446
	 D(10,13,14,22)   =        -2.225439	    -127.508250
	 D(10,13,14,23)   =        -0.123762	      -7.091018
	 D(11,10,9,17)    =         3.135115	     179.628839
	*D(11,10,13,14)   =        -3.034983	    -173.891742
	 D(11,12,1,19)    =        -0.003179	      -0.182150
	 D(12,1,2,15)     =         3.136681	     179.718596
	 D(12,7,6,16)     =        -3.140867	    -179.958448
	 D(12,7,8,18)     =        -3.141162	    -179.975346
	 D(12,11,10,13)   =         3.134185	     179.575576
	 D(13,10,9,17)    =         0.018089	       1.036425
	 D(13,10,11,20)   =        -0.008774	      -0.502711
	 D(15,2,1,19)     =        -0.000563	      -0.032267
	 D(17,9,8,18)     =         0.000633	       0.036293

	Current energy   :     -1188.1115651269

	Generating empirical Hessian (Schlegel '84) for each fragment.
	Taking RFO optimization step.
	Going to follow RFO solution 1.
	Using RFO vector 1.
	Norm of target step-size    0.19004
	Projected energy change by RFO approximation:        -0.0127597926

	Back-transformation to cartesian coordinates...
	Could not converge backtransformation.
	Using first guess instead.

	Back-transformation to cartesian coordinates to adjust frozen coordinates...
	Successfully converged to displaced geometry.

	--- Internal Coordinate Step in ANG or DEG, aJ/ANG or AJ/DEG ---
	 ---------------------------------------------------------------------------
	   Coordinate                Previous        Force       Change         New 
	   ----------                --------       ------       ------       ------
	    1 R(1,2)          =      1.370292    -0.009506     0.006252     1.376544
	    2 R(1,12)         =      1.415544    -0.134284     0.013254     1.428798
	    3 R(1,19)         =      1.010850     0.018998     0.061123     1.071973
	    4 R(2,3)          =      1.564450    -0.095028     0.066953     1.631403
	    5 R(2,15)         =      1.222619    -0.178769     0.024397     1.247017
	    6 R(3,4)          =      1.377238    -0.155941     0.045459     1.422697
	    7 R(3,5)          =      1.376754    -0.148759     0.027090     1.403843
	    8 R(3,6)          =      1.568142    -0.090256     0.017877     1.586018
	    9 R(6,7)          =      1.480949    -0.079855     0.001569     1.482519
	   10 R(6,16)         =      1.227314    -0.229545     0.053986     1.281300
	   11 R(7,8)          =      1.411638    -0.105649     0.015659     1.427297
	   12 R(7,12)         =      1.421273    -0.118683     0.063590     1.484863
	   13 R(8,9)          =      1.401274    -0.143607    -0.005838     1.395436
	   14 R(8,18)         =      1.090745    -0.033695     0.057071     1.147816
	   15 R(9,10)         =      1.422741    -0.148426     0.060069     1.482810
	   16 R(9,17)         =      1.087446    -0.019709     0.023611     1.111057
	   17 R(10,11)        =      1.413810    -0.114718     0.014991     1.428800
	   18 R(10,13)        =      1.782108    -0.097430     0.004893     1.787001
	   19 R(11,12)        =      1.405886    -0.141304    -0.004835     1.401051
	   20 R(11,20)        =      1.091300    -0.020620     0.059841     1.151141
	   21 R(13,14)        =      1.818874    -0.007729     0.063296     1.882170
	   22 R(14,21)        =      1.094334    -0.015812     0.056288     1.150622
	   23 R(14,22)        =      1.094561    -0.017720     0.024427     1.118988
	   24 R(14,23)        =      1.090187     0.001055     0.058138     1.148325
	   25 B(1,2,3)        =    115.994954    -0.000057     0.045502   116.040456
	   26 B(1,2,15)       =    120.390733     0.000808    -0.084885   120.305847
	   27 B(1,12,7)       =    119.983421     0.000224     2.494306   122.477727
	   28 B(1,12,11)      =    120.289298    -0.000416    -3.836271   116.453027
	   29 B(2,1,12)       =    128.089167    -0.000195    -3.040264   125.048903
	   30 B(2,1,19)       =    112.148506     0.000389     1.835035   113.983541
	   31 B(2,3,4)        =    107.520598    -0.000028    -0.490627   107.029971
	   32 B(2,3,5)        =    107.435257    -0.000024    -0.576046   106.859210
	   33 B(2,3,6)        =    117.361304     0.000069     2.762871   120.124175
	   34 B(3,2,15)       =    123.614274    -0.000751     0.039240   123.653513
	   35 B(3,6,7)        =    117.630963    -0.000156    -3.174089   114.456875
	   36 B(3,6,16)       =    120.503533    -0.000745     0.038513   120.542047
	   37 B(4,3,5)        =    108.251093    -0.000023     2.405246   110.656339
	   38 B(4,3,6)        =    108.026359     0.000005    -1.489739   106.536620
	   39 B(5,3,6)        =    107.955335    -0.000005    -2.417260   105.538075
	   40 B(6,7,8)        =    120.172856    -0.000024    -2.722316   117.450541
	   41 B(6,7,12)       =    120.933774     0.000114     0.911234   121.845007
	   42 B(7,6,16)       =    121.865209     0.000901     3.135487   125.000696
	   43 B(7,8,9)        =    121.126098     0.000071    -2.485411   118.640687
	   44 B(7,8,18)       =    118.159695    -0.000010     2.052467   120.212162
	   45 B(7,12,11)      =    119.726364     0.000191     1.342254   121.068618
	   46 B(8,7,12)       =    118.893310    -0.000090     1.810989   120.704299
	   47 B(8,9,10)       =    120.464440    -0.000230    -0.073985   120.390455
	   48 B(8,9,17)       =    117.645784     0.000284    -1.612065   116.033718
	   49 B(9,8,18)       =    120.714104    -0.000060     0.433006   121.147110
	   50 B(9,10,11)      =    118.150469     0.000466     3.417900   121.568369
	   51 B(9,10,13)      =    127.184471    -0.000455    -0.457142   126.727329
	   52 B(10,9,17)      =    121.889394    -0.000054     1.685744   123.575138
	   53 B(10,11,12)     =    121.635036    -0.000409    -4.013168   117.621868
	   54 B(10,11,20)     =    119.341881     0.000197     2.595844   121.937725
	   55 B(10,13,14)     =    109.412607    -0.001466    -7.079661   102.332946
	   56 B(11,10,13)     =    114.651697    -0.000011    -2.961618   111.690078
	   57 B(12,1,19)      =    119.761872    -0.000193     1.205293   120.967165
	   58 B(12,11,20)     =    119.023038     0.000212     1.417369   120.440407
	   59 B(13,14,21)     =    108.638377     0.000093    -0.346291   108.292086
	   60 B(13,14,22)     =    108.469081    -0.000109    -2.706478   105.762603
	   61 B(13,14,23)     =    112.112080     0.000043     2.671025   114.783105
	   62 B(21,14,22)     =    109.132715     0.000067     2.987032   112.119747
	   63 B(21,14,23)     =    109.436911    -0.000042    -0.849140   108.587771
	   64 B(22,14,23)     =    109.004904    -0.000051    -1.646724   107.358180
	   65 D(1,2,3,4)      =    122.786918     0.000007    -0.372432   122.414486
	   66 D(1,2,3,5)      =   -120.893414    -0.000005     1.884421  -119.008992
	   67 D(1,2,3,6)      =      0.865482    -0.000000     0.089623     0.955105
	   68 D(1,12,7,6)     =      0.315748    -0.000002    -0.226953     0.088795
	   69 D(1,12,7,8)     =   -179.595422    -0.000003    -0.461866  -180.057288
	   70 D(1,12,11,10)   =    179.107242     0.000004     0.469559   179.576801
	   71 D(1,12,11,20)   =     -0.814713     0.000003     0.397429    -0.417284
	   72 D(2,1,12,7)     =     -0.265743     0.000002     0.219874    -0.045870
	   73 D(2,1,12,11)    =   -179.916336    -0.000004    -0.415262  -180.331597
	   74 D(2,3,6,7)      =     -0.818668     0.000000    -0.082784    -0.901452
	   75 D(2,3,6,16)     =    179.374944    -0.000000    -0.062397   179.312547
	   76 D(3,2,1,12)     =     -0.351051    -0.000001    -0.117206    -0.468257
	   77 D(3,2,1,19)     =    179.898085    -0.000001    -0.139537   179.758548
	   78 D(3,6,7,8)      =   -179.851991     0.000003     0.391512  -179.460479
	   79 D(3,6,7,12)     =      0.237970     0.000001     0.160010     0.397980
	   80 D(4,3,2,15)     =    -57.285223     0.000007    -0.455886   -57.741109
	   81 D(4,3,6,7)      =   -122.478528    -0.000003    -0.124353  -122.602882
	   82 D(4,3,6,16)     =     57.715084    -0.000004    -0.103967    57.611117
	   83 D(5,3,2,15)     =     59.034446    -0.000006     1.800967    60.835413
	   84 D(5,3,6,7)      =    120.670763     0.000003    -0.951122   119.719641
	   85 D(5,3,6,16)     =    -59.135624     0.000003    -0.930735   -60.066359
	   86 D(6,3,2,15)     =   -179.206659    -0.000001     0.006168  -179.200490
	   87 D(6,7,8,9)      =   -179.771046    -0.000002    -0.340556  -180.111602
	   88 D(6,7,8,18)     =      0.112791    -0.000001    -0.151278    -0.038487
	   89 D(6,7,12,11)    =    179.968317     0.000003     0.419132   180.387449
	   90 D(7,8,9,10)     =      0.138057     0.000000     0.047392     0.185448
	   91 D(7,8,9,17)     =    179.917170    -0.000001    -0.022929   179.894241
	   92 D(7,12,1,19)    =    179.468442     0.000002     0.244018   179.712460
	   93 D(7,12,11,10)   =     -0.544249    -0.000001    -0.160358    -0.704607
	   94 D(7,12,11,20)   =    179.533796    -0.000002    -0.232488   179.301308
	   95 D(8,7,6,16)     =     -0.048409     0.000002     0.362929     0.314520
	   96 D(8,7,12,11)    =      0.057148     0.000002     0.184218     0.241366
	   97 D(8,9,10,11)    =     -0.601612    -0.000002    -0.081541    -0.683153
	   98 D(8,9,10,13)    =   -179.194026    -0.000000     0.000130  -179.193896
	   99 D(9,8,7,12)     =      0.140818    -0.000001    -0.112580     0.028238
	  100 D(9,10,11,12)   =      0.809417     0.000002     0.115769     0.925186
	  101 D(9,10,11,20)   =   -179.268870     0.000003     0.188047  -179.080823
	  102 *D(9,10,13,14)  =      4.742725    -0.000000    -0.000000     4.742725
	  103 D(10,9,8,18)    =   -179.742820    -0.000001    -0.145558  -179.888378
	  104 *D(10,13,14,21) =    113.980446     0.000000     0.000000   113.980446
	  105 D(10,13,14,22)  =   -127.508250     0.000016     1.845738  -125.662512
	  106 D(10,13,14,23)  =     -7.091018    -0.000009    -0.422032    -7.513050
	  107 D(11,10,9,17)   =    179.628839    -0.000001     0.002065   179.630904
	  108 *D(11,10,13,14) =   -173.891742     0.000000     0.000000  -173.891742
	  109 D(11,12,1,19)   =     -0.182150    -0.000003    -0.391118    -0.573268
	  110 D(12,1,2,15)    =    179.718596     0.000000    -0.036834   179.681762
	  111 D(12,7,6,16)    =   -179.958448     0.000000     0.131427  -179.827021
	  112 D(12,7,8,18)    =   -179.975346     0.000001     0.076698  -179.898648
	  113 D(12,11,10,13)  =    179.575576    -0.000001     0.065069   179.640645
	  114 D(13,10,9,17)   =      1.036425     0.000001     0.083736     1.120161
	  115 D(13,10,11,20)  =     -0.502711    -0.000000     0.137348    -0.365364
	  116 D(15,2,1,19)    =     -0.032267    -0.000000    -0.059165    -0.091433
	  117 D(17,9,8,18)    =      0.036293    -0.000002    -0.215879    -0.179585
	 ---------------------------------------------------------------------------
	Successfully symmetrized geometry.

  ==> Convergence Check <==

  Measures of convergence in internal coordinates in au.
  Criteria marked as inactive (o), active & met (*), and active & unmet ( ).
  --------------------------------------------------------------------------------------------- ~
   Step     Total Energy     Delta E     MAX Force     RMS Force      MAX Disp      RMS Disp    ~
  --------------------------------------------------------------------------------------------- ~
    Convergence Criteria             o    2.50e-03 *    1.70e-03 *    1.00e-02 *    6.70e-03 *  ~
  --------------------------------------------------------------------------------------------- ~
      1   -1188.11156513   -1.19e+03 o    2.79e-02      6.72e-03      1.27e-01      4.37e-02    ~
  ---------------------------------------------------------------------------------------------

	Writing optimization data to binary file.
	Structure for next step:
	Cartesian Geometry (in Angstrom)
	    N    -1.1269214124  -1.4513552329  -0.2052900117
	    C    -2.4128538180  -1.0202507468   0.0300805683
	    C    -2.5866411175   0.5678855024   0.3603793416
	    F    -3.4829250741   1.0992918952  -0.6083047126
	    F    -3.1387584709   0.6579168861   1.6479493858
	    C    -1.3193443175   1.5214212815   0.3739015797
	    C    -0.0343409993   0.8384980731   0.0906274792
	    C     1.1498898618   1.6351861320   0.0984887923
	    C     2.3734785253   1.0172458929  -0.1627030022
	    C     2.4340837939  -0.4370010145  -0.4459306588
	    C     1.2581125026  -1.2485188636  -0.4468609089
	    C     0.0337033173  -0.6181977864  -0.1890588812
	    S     3.9015306021  -1.4002728635  -0.7807132767
	    C     5.2762649984  -0.1400183382  -0.5268846344
	    O    -3.3641375487  -1.8254340332  -0.0122297792
	    O    -1.4483120732   2.7723524514   0.6193992829
	    H     3.2665642977   1.6780121683  -0.1474592702
	    H     1.0877151873   2.7602098308   0.3174341113
	    H    -1.0503266612  -2.4998921837  -0.4146435465
	    H     1.2997200957  -2.3807285595  -0.6505656792
	    H     5.8962509456  -0.4611732070   0.3876689486
	    H     5.8785405132  -0.1530933167  -1.4698730484
	    H     4.9167175112   0.9384759343  -0.3649388053
			--------------------------
			 OPTKING Finished Execution 
			--------------------------

    Structure for next step:
    Molecular point group: c1
    Full point group: C1

    Geometry (in Angstrom), charge = 0, multiplicity = 1:

    N           -1.133972648707    -1.487208224669    -0.161882562306
    C           -2.419905059379    -1.056103736826     0.073488018668
    C           -2.593692359538     0.532032518561     0.403786793202
    F           -3.489976319754     1.063438913508    -0.564897264753
    F           -3.145809715154     0.622063902667     1.691356842494
    C           -1.326395554585     1.485568301434     0.417309031395
    C           -0.041392231332     0.802645090388     0.134034929840
    C            1.142838634451     1.599333152411     0.141896242945
    C            2.366427302691     0.981392910906    -0.119295552574
    C            2.427032571567    -0.472854002266    -0.402523210357
    C            1.251061275672    -1.284371854570    -0.403453460460
    C            0.026652085566    -0.654050774851    -0.145651431722
    S            3.894479385556    -1.436125854988    -0.737305829539
    C            5.269213787205    -0.175871324795    -0.483477186261
    O           -3.371188793883    -1.861287026371     0.031177671016
    O           -1.455363310768     2.736499476249     0.662806735584
    H            3.259513078672     1.642159188836    -0.104051820506
    H            1.080663959694     2.724356855626     0.360841562824
    H           -1.057377897292    -2.535745179590    -0.371236097845
    H            1.292668868893    -2.416581554911    -0.607158231506
    H            5.889199736904    -0.497026194807     0.431076400399
    H            5.871489304412    -0.188946303378    -1.426465603963
    H            4.909666298623     0.902622951945    -0.321531356520

gradient() will perform analytic gradient computation.

*** tstart() called on cpu-spot-dy-c5n2xlarge-1
*** at Tue Jun 22 04:53:37 2021

   => Loading Basis Set <=

    Name: 6-31+G*
    Role: ORBITAL
    Keyword: BASIS
    atoms 1             entry N          line   138 file /fsx/users/francis/anaconda3/envs/poltype-dev/share/psi4/basis/6-31pgs.gbs 
    atoms 2-3, 6-12, 14 entry C          line   119 file /fsx/users/francis/anaconda3/envs/poltype-dev/share/psi4/basis/6-31pgs.gbs 
    atoms 4-5           entry F          line   176 file /fsx/users/francis/anaconda3/envs/poltype-dev/share/psi4/basis/6-31pgs.gbs 
    atoms 13            entry S          line   344 file /fsx/users/francis/anaconda3/envs/poltype-dev/share/psi4/basis/6-31pgs.gbs 
    atoms 15-16         entry O          line   157 file /fsx/users/francis/anaconda3/envs/poltype-dev/share/psi4/basis/6-31pgs.gbs 
    atoms 17-23         entry H          line    46 file /fsx/users/francis/anaconda3/envs/poltype-dev/share/psi4/basis/6-31pgs.gbs 


         ---------------------------------------------------------
                                   SCF
               by Justin Turney, Rob Parrish, Andy Simmonett
                          and Daniel G. A. Smith
                              RKS Reference
                        8 Threads,  15258 MiB Core
         ---------------------------------------------------------

  ==> Geometry <==

    Molecular point group: c1
    Full point group: C1

    Geometry (in Angstrom), charge = 0, multiplicity = 1:

       Center              X                  Y                   Z               Mass       
    ------------   -----------------  -----------------  -----------------  -----------------
         N           -1.133972648707    -1.487208224669    -0.161882562306    14.003074004430
         C           -2.419905059379    -1.056103736826     0.073488018668    12.000000000000
         C           -2.593692359538     0.532032518561     0.403786793202    12.000000000000
         F           -3.489976319754     1.063438913508    -0.564897264753    18.998403162730
         F           -3.145809715154     0.622063902667     1.691356842494    18.998403162730
         C           -1.326395554585     1.485568301434     0.417309031395    12.000000000000
         C           -0.041392231332     0.802645090388     0.134034929840    12.000000000000
         C            1.142838634451     1.599333152411     0.141896242945    12.000000000000
         C            2.366427302691     0.981392910906    -0.119295552574    12.000000000000
         C            2.427032571567    -0.472854002266    -0.402523210357    12.000000000000
         C            1.251061275672    -1.284371854570    -0.403453460460    12.000000000000
         C            0.026652085566    -0.654050774851    -0.145651431722    12.000000000000
         S            3.894479385556    -1.436125854988    -0.737305829539    31.972071174400
         C            5.269213787205    -0.175871324795    -0.483477186261    12.000000000000
         O           -3.371188793883    -1.861287026371     0.031177671016    15.994914619570
         O           -1.455363310768     2.736499476249     0.662806735584    15.994914619570
         H            3.259513078672     1.642159188836    -0.104051820506     1.007825032230
         H            1.080663959694     2.724356855626     0.360841562824     1.007825032230
         H           -1.057377897292    -2.535745179590    -0.371236097845     1.007825032230
         H            1.292668868893    -2.416581554911    -0.607158231506     1.007825032230
         H            5.889199736904    -0.497026194807     0.431076400399     1.007825032230
         H            5.871489304412    -0.188946303378    -1.426465603963     1.007825032230
         H            4.909666298623     0.902622951945    -0.321531356520     1.007825032230

  Running in c1 symmetry.

  Rotational constants: A =      0.03534  B =      0.00824  C =      0.00698 [cm^-1]
  Rotational constants: A =   1059.47715  B =    246.94258  C =    209.12955 [MHz]
  Nuclear repulsion = 1159.099879794836170

  Charge       = 0
  Multiplicity = 1
  Electrons    = 124
  Nalpha       = 62
  Nbeta        = 62

  ==> Algorithm <==

  SCF Algorithm Type is DF.
  DIIS enabled.
  MOM disabled.
  Fractional occupation disabled.
  Guess Type is READ.
  Energy threshold   = 1.00e-08
  Density threshold  = 1.00e-08
  Integral threshold = 0.00e+00

  ==> Primary Basis <==

  Basis Set: 6-31+G*
    Blend: 6-31+G*
    Number of shells: 144
    Number of basis function: 322
    Number of Cartesian functions: 322
    Spherical Harmonics?: false
    Max angular momentum: 2

  ==> DFT Potential <==

   => Composite Functional: WB97X-D <= 

    wB97X-D Hyb-GGA Exchange-Correlation Functional

    J.-D. Chai and M. Head-Gordon, Phys. Chem. Chem. Phys. 10, 6615 (2008)

    Deriv               =              1
    GGA                 =           TRUE
    Meta                =          FALSE

    Exchange Hybrid     =           TRUE
    MP2 Hybrid          =          FALSE

   => Exchange-Correlation Functionals <=

    1.0000   wB97D range-separated functional

   => Exact (HF) Exchange <=

    0.7780            HF,LR [omega = 0.2000]
    0.2220               HF 

   => Molecular Quadrature <=

    Radial Scheme          =       TREUTLER
    Pruning Scheme         =           FLAT
    Nuclear Scheme         =       TREUTLER

    BS radius alpha        =              1
    Pruning alpha          =              1
    Radial Points          =             75
    Spherical Points       =            302
    Total Points           =         520859
    Total Blocks           =           3891
    Max Points             =            256
    Max Functions          =            286

   => WB97X-D: Empirical Dispersion <=

    Chai and Head-Gordon Dispersion Correction
    Chai, J.-D.; Head-Gordon, M. (2010), J. Chem. Phys., 132: 6615-6620

        s6 =       1.000000

   => Loading Basis Set <=

    Name: (6-31+G* AUX)
    Role: JKFIT
    Keyword: DF_BASIS_SCF
    atoms 1             entry N          line   252 file /fsx/users/francis/anaconda3/envs/poltype-dev/share/psi4/basis/heavy-aug-cc-pvdz-jkfit.gbs 
    atoms 2-3, 6-12, 14 entry C          line   194 file /fsx/users/francis/anaconda3/envs/poltype-dev/share/psi4/basis/heavy-aug-cc-pvdz-jkfit.gbs 
    atoms 4-5           entry F          line   368 file /fsx/users/francis/anaconda3/envs/poltype-dev/share/psi4/basis/heavy-aug-cc-pvdz-jkfit.gbs 
    atoms 13            entry S          line   730 file /fsx/users/francis/anaconda3/envs/poltype-dev/share/psi4/basis/heavy-aug-cc-pvdz-jkfit.gbs 
    atoms 15-16         entry O          line   310 file /fsx/users/francis/anaconda3/envs/poltype-dev/share/psi4/basis/heavy-aug-cc-pvdz-jkfit.gbs 
    atoms 17-23         entry H          line   116 file /fsx/users/francis/anaconda3/envs/poltype-dev/share/psi4/basis/heavy-aug-cc-pvdz-jkfit.gbs 

   => Loading Basis Set <=

    Name: 6-31+G*
    Role: ORBITAL
    Keyword: BASIS
    atoms 1             entry N          line   138 file /fsx/users/francis/anaconda3/envs/poltype-dev/share/psi4/basis/6-31pgs.gbs 
    atoms 2-3, 6-12, 14 entry C          line   119 file /fsx/users/francis/anaconda3/envs/poltype-dev/share/psi4/basis/6-31pgs.gbs 
    atoms 4-5           entry F          line   176 file /fsx/users/francis/anaconda3/envs/poltype-dev/share/psi4/basis/6-31pgs.gbs 
    atoms 13            entry S          line   344 file /fsx/users/francis/anaconda3/envs/poltype-dev/share/psi4/basis/6-31pgs.gbs 
    atoms 15-16         entry O          line   157 file /fsx/users/francis/anaconda3/envs/poltype-dev/share/psi4/basis/6-31pgs.gbs 
    atoms 17-23         entry H          line    46 file /fsx/users/francis/anaconda3/envs/poltype-dev/share/psi4/basis/6-31pgs.gbs 

  Reading orbitals from file 180, no projection.

  ==> Pre-Iterations <==

   -------------------------------------------------------
    Irrep   Nso     Nmo     Nalpha   Nbeta   Ndocc  Nsocc
   -------------------------------------------------------
     A        322     322       0       0       0       0
   -------------------------------------------------------
    Total     322     322      62      62      62       0
   -------------------------------------------------------

  ==> Integral Setup <==

  ==> DiskDFJK: Density-Fitted J/K Matrices <==

    J tasked:                  Yes
    K tasked:                  Yes
    wK tasked:                 Yes
    Omega:               2.000E-01
    OpenMP threads:              8
    Integrals threads:           8
    Memory [MiB]:             8476
    Algorithm:                Core
    Integral Cache:           NONE
    Schwarz Cutoff:          1E-12
    Fitting Condition:       1E-10

   => Auxiliary Basis Set <=

  Basis Set: (6-31+G* AUX)
    Blend: HEAVY-AUG-CC-PVDZ-JKFIT
    Number of shells: 523
    Number of basis function: 1840
    Number of Cartesian functions: 1840
    Spherical Harmonics?: false
    Max angular momentum: 3

  Cached 100.0% of DFT collocation blocks in 2.898 [GiB].

  Minimum eigenvalue in the overlap matrix is 5.8007068226E-07.
  Using Symmetric Orthogonalization.

  SCF Guess: Orbitals guess was supplied from a previous computation.

  ==> Iterations <==

                           Total Energy        Delta E     RMS |[F,P]|

   @DF-RKS iter   0: -1187.78789233884413   -1.18779e+03   9.95332e-03 
   @DF-RKS iter   1: -1187.91240372435777   -1.24511e-01   1.32691e-03 DIIS
   @DF-RKS iter   2: -1187.95746448114983   -4.50608e-02   1.49118e-03 DIIS
   @DF-RKS iter   3: -1188.05725141609378   -9.97869e-02   3.71428e-04 DIIS
   @DF-RKS iter   4: -1188.06248298075661   -5.23156e-03   2.09412e-04 DIIS
   @DF-RKS iter   5: -1188.06466522610572   -2.18225e-03   4.42968e-05 DIIS
   @DF-RKS iter   6: -1188.06480065788787   -1.35432e-04   1.96625e-05 DIIS
   @DF-RKS iter   7: -1188.06482788496146   -2.72271e-05   5.50098e-06 DIIS
   @DF-RKS iter   8: -1188.06483318735059   -5.30239e-06   1.92071e-06 DIIS
   @DF-RKS iter   9: -1188.06483386832110   -6.80971e-07   1.02475e-06 DIIS
   @DF-RKS iter  10: -1188.06483406402663   -1.95706e-07   4.30229e-07 DIIS
   @DF-RKS iter  11: -1188.06483410576243   -4.17358e-08   1.89870e-07 DIIS
   @DF-RKS iter  12: -1188.06483411277259   -7.01016e-09   7.54388e-08 DIIS
   @DF-RKS iter  13: -1188.06483411382214   -1.04956e-09   3.79158e-08 DIIS
   @DF-RKS iter  14: -1188.06483411401928   -1.97133e-10   1.96997e-08 DIIS
   @DF-RKS iter  15: -1188.06483411407976   -6.04814e-11   1.07572e-08 DIIS
   @DF-RKS iter  16: -1188.06483411409636   -1.65983e-11   4.76455e-09 DIIS
  Energy and wave function converged.


  ==> Post-Iterations <==

    Orbital Energies [Eh]
    ---------------------

    Doubly Occupied:                                                      

       1A    -89.094144     2A    -24.871494     3A    -24.866636  
       4A    -19.302060     5A    -19.296687     6A    -14.554319  
       7A    -10.518534     8A    -10.467892     9A    -10.440600  
      10A    -10.424588    11A    -10.408902    12A    -10.374472  
      13A    -10.367070    14A    -10.366324    15A    -10.365740  
      16A    -10.359391    17A     -8.110395    18A     -6.061053  
      19A     -6.056907    20A     -6.050552    21A     -1.359760  
      22A     -1.312510    23A     -1.176261    24A     -1.141221  
      25A     -1.085112    26A     -0.993113    27A     -0.934144  
      28A     -0.899890    29A     -0.882887    30A     -0.853342  
      31A     -0.796133    32A     -0.755340    33A     -0.743354  
      34A     -0.738892    35A     -0.683045    36A     -0.665704  
      37A     -0.652685    38A     -0.636541    39A     -0.617730  
      40A     -0.588731    41A     -0.574742    42A     -0.562622  
      43A     -0.559133    44A     -0.555800    45A     -0.543953  
      46A     -0.543110    47A     -0.539248    48A     -0.522031  
      49A     -0.512544    50A     -0.501597    51A     -0.500236  
      52A     -0.497465    53A     -0.480216    54A     -0.473231  
      55A     -0.471654    56A     -0.442398    57A     -0.435453  
      58A     -0.398479    59A     -0.392893    60A     -0.365389  
      61A     -0.343824    62A     -0.317855  

    Virtual:                                                              

      63A     -0.054040    64A      0.008350    65A      0.031418  
      66A      0.039962    67A      0.043451    68A      0.055304  
      69A      0.058469    70A      0.066068    71A      0.077491  
      72A      0.078871    73A      0.089551    74A      0.094191  
      75A      0.105417    76A      0.106718    77A      0.110256  
      78A      0.113740    79A      0.115487    80A      0.127859  
      81A      0.137259    82A      0.138425    83A      0.142401  
      84A      0.146771    85A      0.150840    86A      0.155463  
      87A      0.161655    88A      0.167147    89A      0.174815  
      90A      0.178035    91A      0.179205    92A      0.181434  
      93A      0.184475    94A      0.190285    95A      0.190851  
      96A      0.197068    97A      0.198046    98A      0.211692  
      99A      0.215642   100A      0.216175   101A      0.223594  
     102A      0.228297   103A      0.232038   104A      0.233380  
     105A      0.242758   106A      0.246127   107A      0.248395  
     108A      0.252549   109A      0.261109   110A      0.265181  
     111A      0.268581   112A      0.272872   113A      0.276854  
     114A      0.282252   115A      0.290769   116A      0.294102  
     117A      0.307098   118A      0.308178   119A      0.312722  
     120A      0.316336   121A      0.317588   122A      0.326106  
     123A      0.331868   124A      0.337223   125A      0.348250  
     126A      0.354095   127A      0.359709   128A      0.367655  
     129A      0.373798   130A      0.376712   131A      0.388945  
     132A      0.394317   133A      0.394644   134A      0.404754  
     135A      0.408894   136A      0.416027   137A      0.418239  
     138A      0.435364   139A      0.439620   140A      0.443471  
     141A      0.448010   142A      0.453703   143A      0.471392  
     144A      0.479605   145A      0.498811   146A      0.503355  
     147A      0.517313   148A      0.524549   149A      0.527192  
     150A      0.544515   151A      0.554124   152A      0.569980  
     153A      0.576428   154A      0.587979   155A      0.603031  
     156A      0.618616   157A      0.647774   158A      0.657443  
     159A      0.663352   160A      0.671282   161A      0.721332  
     162A      0.735399   163A      0.746352   164A      0.759120  
     165A      0.761565   166A      0.764431   167A      0.779189  
     168A      0.792432   169A      0.798838   170A      0.803934  
     171A      0.818342   172A      0.846209   173A      0.854332  
     174A      0.863743   175A      0.873599   176A      0.876190  
     177A      0.892861   178A      0.914532   179A      0.919376  
     180A      0.923166   181A      0.930927   182A      0.948915  
     183A      0.967890   184A      0.970037   185A      0.994784  
     186A      1.015899   187A      1.035643   188A      1.042633  
     189A      1.049058   190A      1.064973   191A      1.075174  
     192A      1.106308   193A      1.119358   194A      1.135894  
     195A      1.148807   196A      1.159953   197A      1.185355  
     198A      1.189889   199A      1.209004   200A      1.221555  
     201A      1.225071   202A      1.235956   203A      1.268967  
     204A      1.286459   205A      1.294833   206A      1.314306  
     207A      1.324652   208A      1.332609   209A      1.340210  
     210A      1.372925   211A      1.394494   212A      1.399925  
     213A      1.410746   214A      1.418135   215A      1.422353  
     216A      1.433710   217A      1.439542   218A      1.448816  
     219A      1.467025   220A      1.476460   221A      1.500750  
     222A      1.504233   223A      1.519553   224A      1.523058  
     225A      1.542315   226A      1.599404   227A      1.617513  
     228A      1.639204   229A      1.648335   230A      1.665959  
     231A      1.706668   232A      1.728276   233A      1.743673  
     234A      1.749838   235A      1.764383   236A      1.766482  
     237A      1.768612   238A      1.774208   239A      1.776774  
     240A      1.813921   241A      1.834160   242A      1.843517  
     243A      1.850856   244A      1.873177   245A      1.893800  
     246A      1.900323   247A      1.915053   248A      1.916302  
     249A      1.948388   250A      1.951618   251A      1.956235  
     252A      1.961271   253A      1.996081   254A      2.009508  
     255A      2.014486   256A      2.029257   257A      2.039682  
     258A      2.052393   259A      2.059794   260A      2.092373  
     261A      2.104718   262A      2.124106   263A      2.136644  
     264A      2.174781   265A      2.176634   266A      2.187874  
     267A      2.192737   268A      2.211465   269A      2.219474  
     270A      2.244604   271A      2.251280   272A      2.278999  
     273A      2.282970   274A      2.298191   275A      2.320811  
     276A      2.336630   277A      2.369430   278A      2.375415  
     279A      2.406285   280A      2.427918   281A      2.436524  
     282A      2.482298   283A      2.534384   284A      2.576198  
     285A      2.619062   286A      2.625362   287A      2.679538  
     288A      2.684823   289A      2.698242   290A      2.714076  
     291A      2.731483   292A      2.783167   293A      2.809267  
     294A      2.830523   295A      2.846398   296A      2.887974  
     297A      2.925146   298A      2.976000   299A      3.074605  
     300A      3.118770   301A      3.159672   302A      3.179570  
     303A      3.283763   304A      3.331076   305A      3.369608  
     306A      3.428225   307A      4.017603   308A      4.233745  
     309A      4.279445   310A      4.300795   311A      4.348629  
     312A      4.369378   313A      4.408805   314A      4.446680  
     315A      4.471624   316A      4.502447   317A      4.549689  
     318A      4.698917   319A      4.783450   320A      5.062052  
     321A      5.656624   322A      7.015643  

    Final Occupation by Irrep:
              A 
    DOCC [    62 ]

  @DF-RKS Final Energy: -1188.06483411409636

   => Energetics <=

    Nuclear Repulsion Energy =           1159.0998797948361698
    One-Electron Energy =               -3932.6336208486691248
    Two-Electron Energy =                1674.6462420796162860
    DFT Exchange-Correlation Energy =     -89.1638571601543788
    Empirical Dispersion Energy =          -0.0134779797251051
    VV10 Nonlocal Energy =                  0.0000000000000000
    Total Energy =                      -1188.0648341140963566

Computation Completed


Properties will be evaluated at   0.000000,   0.000000,   0.000000 [a0]

Properties computed using the SCF density matrix

  Nuclear Dipole Moment: [e a0]
     X:    26.2601      Y:    -1.9655      Z:    -2.9894

  Electronic Dipole Moment: [e a0]
     X:   -22.7517      Y:     1.1481      Z:     2.4978

  Dipole Moment: [e a0]
     X:     3.5084      Y:    -0.8174      Z:    -0.4915     Total:     3.6357

  Dipole Moment: [D]
     X:     8.9175      Y:    -2.0775      Z:    -1.2494     Total:     9.2411


*** tstop() called on cpu-spot-dy-c5n2xlarge-1 at Tue Jun 22 04:54:52 2021
Module time:
	user time   =     561.92 seconds =       9.37 minutes
	system time =       7.93 seconds =       0.13 minutes
	total time  =         75 seconds =       1.25 minutes
Total time:
	user time   =    1287.09 seconds =      21.45 minutes
	system time =      22.20 seconds =       0.37 minutes
	total time  =        175 seconds =       2.92 minutes

*** tstart() called on cpu-spot-dy-c5n2xlarge-1
*** at Tue Jun 22 04:54:52 2021


         ------------------------------------------------------------
                                   SCF GRAD                          
                          Rob Parrish, Justin Turney,                
                       Andy Simmonett, and Alex Sokolov              
         ------------------------------------------------------------

  ==> Geometry <==

    Molecular point group: c1
    Full point group: C1

    Geometry (in Angstrom), charge = 0, multiplicity = 1:

       Center              X                  Y                   Z               Mass       
    ------------   -----------------  -----------------  -----------------  -----------------
         N           -1.133972648707    -1.487208224669    -0.161882562306    14.003074004430
         C           -2.419905059379    -1.056103736826     0.073488018668    12.000000000000
         C           -2.593692359538     0.532032518561     0.403786793202    12.000000000000
         F           -3.489976319754     1.063438913508    -0.564897264753    18.998403162730
         F           -3.145809715154     0.622063902667     1.691356842494    18.998403162730
         C           -1.326395554585     1.485568301434     0.417309031395    12.000000000000
         C           -0.041392231332     0.802645090388     0.134034929840    12.000000000000
         C            1.142838634451     1.599333152411     0.141896242945    12.000000000000
         C            2.366427302691     0.981392910906    -0.119295552574    12.000000000000
         C            2.427032571567    -0.472854002266    -0.402523210357    12.000000000000
         C            1.251061275672    -1.284371854570    -0.403453460460    12.000000000000
         C            0.026652085566    -0.654050774851    -0.145651431722    12.000000000000
         S            3.894479385556    -1.436125854988    -0.737305829539    31.972071174400
         C            5.269213787205    -0.175871324795    -0.483477186261    12.000000000000
         O           -3.371188793883    -1.861287026371     0.031177671016    15.994914619570
         O           -1.455363310768     2.736499476249     0.662806735584    15.994914619570
         H            3.259513078672     1.642159188836    -0.104051820506     1.007825032230
         H            1.080663959694     2.724356855626     0.360841562824     1.007825032230
         H           -1.057377897292    -2.535745179590    -0.371236097845     1.007825032230
         H            1.292668868893    -2.416581554911    -0.607158231506     1.007825032230
         H            5.889199736904    -0.497026194807     0.431076400399     1.007825032230
         H            5.871489304412    -0.188946303378    -1.426465603963     1.007825032230
         H            4.909666298623     0.902622951945    -0.321531356520     1.007825032230

  Nuclear repulsion = 1159.099879794836170

  ==> Basis Set <==

  Basis Set: 6-31+G*
    Blend: 6-31+G*
    Number of shells: 144
    Number of basis function: 322
    Number of Cartesian functions: 322
    Spherical Harmonics?: false
    Max angular momentum: 2

  ==> DFJKGrad: Density-Fitted SCF Gradients <==

    Gradient:                    1
    J tasked:                  Yes
    K tasked:                  Yes
    wK tasked:                 Yes
    Omega:               2.000E-01
    OpenMP threads:              8
    Integrals threads:           8
    Memory [MiB]:            11444
    Schwarz Cutoff:          0E+00
    Fitting Condition:       1E-10

   => Auxiliary Basis Set <=

  Basis Set: (6-31+G* AUX)
    Blend: HEAVY-AUG-CC-PVDZ-JKFIT
    Number of shells: 523
    Number of basis function: 1840
    Number of Cartesian functions: 1840
    Spherical Harmonics?: false
    Max angular momentum: 3

  ==> DFT Potential <==

   => Composite Functional: WB97X-D <= 

    wB97X-D Hyb-GGA Exchange-Correlation Functional

    J.-D. Chai and M. Head-Gordon, Phys. Chem. Chem. Phys. 10, 6615 (2008)

    Deriv               =              1
    GGA                 =           TRUE
    Meta                =          FALSE

    Exchange Hybrid     =           TRUE
    MP2 Hybrid          =          FALSE

   => Exchange-Correlation Functionals <=

    1.0000   wB97D range-separated functional

   => Exact (HF) Exchange <=

    0.7780            HF,LR [omega = 0.2000]
    0.2220               HF 

   => Molecular Quadrature <=

    Radial Scheme          =       TREUTLER
    Pruning Scheme         =           FLAT
    Nuclear Scheme         =       TREUTLER

    BS radius alpha        =              1
    Pruning alpha          =              1
    Radial Points          =             75
    Spherical Points       =            302
    Total Points           =         520859
    Total Blocks           =           3891
    Max Points             =            256
    Max Functions          =            286


  -Total Gradient:
     Atom            X                  Y                   Z
    ------   -----------------  -----------------  -----------------
       1       -0.005028416408     0.004254370662     0.001349712494
       2        0.033413492719     0.021099453800     0.001073867149
       3        0.021050793272    -0.008745410024     0.000172618390
       4       -0.024725877661     0.020589146880    -0.036138178287
       5       -0.007196482972     0.004238669537     0.038178647854
       6        0.004392221836    -0.054597093525    -0.008456164265
       7        0.004831502499     0.014600293028     0.002000553701
       8        0.002839187274     0.006641080552     0.000841434709
       9       -0.002458918273     0.024752126259     0.005994237153
      10        0.007303964079    -0.016394748264    -0.007855222791
      11       -0.006406782614    -0.007384505921     0.000705284029
      12        0.007495327405    -0.017644134782    -0.004098206837
      13       -0.006840939245    -0.036266359386    -0.007935194458
      14       -0.008351670999    -0.004343601471    -0.009320568242
      15       -0.039897772312    -0.047353739095    -0.004581090321
      16       -0.006359782393     0.096696531141     0.018368003439
      17        0.012668822741     0.017065544578     0.001864226932
      18        0.000738030875     0.037597562393     0.006984351017
      19        0.000313250587    -0.043722358348    -0.008361670864
      20       -0.000713724453    -0.037737787783    -0.006581270252
      21        0.016625751706    -0.009673968043     0.028856465352
[...]
	 B(6,7,8)         =         2.106938	     120.718640
	 B(6,7,12)        =         2.103510	     120.522227
	 B(7,6,16)        =         2.185490	     125.219379
	 B(7,8,9)         =         2.121473	     121.551454
	 B(7,8,18)        =         2.060450	     118.055077
	 B(7,12,11)       =         2.095454	     120.060687
	 B(8,7,12)        =         2.072468	     118.743682
	 B(8,9,10)        =         2.087095	     119.581722
	 B(8,9,17)        =         2.072655	     118.754387
	 B(9,8,18)        =         2.101220	     120.391035
	 B(9,10,11)       =         2.084044	     119.406902
	 B(9,10,13)       =         2.205222	     126.349923
	 B(10,9,17)       =         2.123408	     121.662331
	 B(10,11,12)      =         2.105653	     120.645032
	 B(10,11,20)      =         2.089375	     119.712388
	 B(10,13,14)      =         1.866798	     106.959620
	 B(11,10,13)      =         1.993680	     114.229455
	 B(12,1,19)       =         2.069355	     118.565317
	 B(12,11,20)      =         2.088157	     119.642577
	 B(13,14,21)      =         1.906969	     109.261303
	 B(13,14,22)      =         1.886815	     108.106550
	 B(13,14,23)      =         1.962369	     112.435456
	 B(21,14,22)      =         1.909911	     109.429845
	 B(21,14,23)      =         1.906032	     109.207584
	 B(22,14,23)      =         1.891149	     108.354868
	 D(1,2,3,4)       =         2.716112	     155.621746
	 D(1,2,3,5)       =        -1.528169	     -87.557640
	 D(1,2,3,6)       =         0.507992	      29.105814
	 D(1,12,7,6)      =         0.008838	       0.506378
	 D(1,12,7,8)      =        -3.107979	    -178.074062
	 D(1,12,11,10)    =         3.107934	     178.071510
	 D(1,12,11,20)    =        -0.033294	      -1.907607
	 D(2,1,12,7)      =        -0.050178	      -2.874968
	 D(2,1,12,11)     =         3.113819	     178.408691
	 D(2,3,6,7)       =        -0.545388	     -31.248407
	 D(2,3,6,16)      =         2.655489	     152.148312
	 D(3,2,1,12)      =        -0.219010	     -12.548352
	 D(3,2,1,19)      =         3.042110	     174.300054
	 D(3,6,7,8)       =        -2.874716	    -164.709108
	 D(3,6,7,12)      =         0.292145	      16.738683
	 D(4,3,2,15)      =        -0.488128	     -27.967692
	 D(4,3,6,7)       =        -2.741773	    -157.092017
	 D(4,3,6,16)      =         0.459104	      26.304702
	 D(5,3,2,15)      =         1.550776	      88.852921
	 D(5,3,6,7)       =         1.490296	      85.387675
	 D(5,3,6,16)      =        -1.592013	     -91.215606
	 D(6,3,2,15)      =        -2.696248	    -154.483625
	 D(6,7,8,9)       =        -3.130960	    -179.390780
	 D(6,7,8,18)      =         0.020504	       1.174772
	 D(6,7,12,11)     =         3.127843	     179.212190
	 D(7,8,9,10)      =         0.017363	       0.994837
	 D(7,8,9,17)      =        -3.132026	    -179.451884
	 D(7,12,1,19)     =         2.967829	     170.044090
	 D(7,12,11,10)    =        -0.011398	      -0.653046
	 D(7,12,11,20)    =         3.130559	     179.367836
	 D(8,7,6,16)      =         0.203982	      11.687320
	 D(8,7,12,11)     =         0.011026	       0.631749
	 D(8,9,10,11)     =        -0.017146	      -0.982375
	 D(8,9,10,13)     =        -3.133790	    -179.552947
	 D(9,8,7,12)      =        -0.014193	      -0.813224
	 D(9,10,11,12)    =         0.014375	       0.823651
	 D(9,10,11,20)    =        -3.127582	    -179.197246
	*D(9,10,13,14)    =         0.082776	       4.742725
	 D(10,9,8,18)     =        -3.134328	    -179.583765
	*D(10,13,14,21)   =         1.989334	     113.980446
	 D(10,13,14,22)   =        -2.216699	    -127.007497
	 D(10,13,14,23)   =        -0.129857	      -7.440240
	 D(11,10,9,17)    =         3.132478	     179.477748
	*D(11,10,13,14)   =        -3.034983	    -173.891742
	 D(11,12,1,19)    =        -0.151359	      -8.672251
	 D(12,1,2,15)     =         2.985997	     171.085006
	 D(12,7,6,16)     =        -2.912342	    -166.864888
	 D(12,7,8,18)     =         3.137270	     179.752329
	 D(12,11,10,13)   =         3.133934	     179.561188
	 D(13,10,9,17)    =         0.015833	       0.907176
	 D(13,10,11,20)   =        -0.008023	      -0.459710
	 D(15,2,1,19)     =        -0.036069	      -2.066588
	 D(17,9,8,18)     =        -0.000532	      -0.030486

	Current energy   :     -1188.1185531816

	Energy change for the previous step:
		Projected    :        -0.0002715361
		Actual       :        -0.0000285403

	Performing BFGS update.
	Previous computed or guess Hessian on step 1.
	Steps to be used in Hessian update: 4 3
	Taking RFO optimization step.
	Going to follow RFO solution 1.
	Using RFO vector 1.
	Norm of target step-size    0.02215
	Projected energy change by RFO approximation:        -0.0000097965

	Back-transformation to cartesian coordinates...
	Successfully converged to displaced geometry.

	Back-transformation to cartesian coordinates to adjust frozen coordinates...
	Successfully converged to displaced geometry.

	--- Internal Coordinate Step in ANG or DEG, aJ/ANG or AJ/DEG ---
	 ---------------------------------------------------------------------------
	   Coordinate                Previous        Force       Change         New 
	   ----------                --------       ------       ------       ------
	    1 R(1,2)          =      1.370578     0.002125     0.000250     1.370828
	    2 R(1,12)         =      1.399607    -0.001786    -0.000109     1.399498
	    3 R(1,19)         =      1.012765     0.000574    -0.000010     1.012755
	    4 R(2,3)          =      1.545479     0.001932     0.000374     1.545853
	    5 R(2,15)         =      1.207291     0.015414     0.000605     1.207896
	    6 R(3,4)          =      1.334986     0.001877     0.000321     1.335307
	    7 R(3,5)          =      1.373736     0.008857     0.001259     1.374995
	    8 R(3,6)          =      1.550119    -0.002849    -0.000359     1.549759
	    9 R(6,7)          =      1.467552    -0.002294    -0.000327     1.467224
	   10 R(6,16)         =      1.210686    -0.011149    -0.000697     1.209989
	   11 R(7,8)          =      1.397060    -0.000600    -0.000070     1.396990
	   12 R(7,12)         =      1.405660     0.000644     0.000008     1.405669
	   13 R(8,9)          =      1.384154    -0.001368    -0.000085     1.384070
	   14 R(8,18)         =      1.085755     0.000431     0.000021     1.085776
	   15 R(9,10)         =      1.402670     0.003684     0.000311     1.402981
	   16 R(9,17)         =      1.082649    -0.001689    -0.000222     1.082428
	   17 R(10,11)        =      1.400556     0.000143     0.000014     1.400570
	   18 R(10,13)        =      1.765945     0.003232     0.000506     1.766451
	   19 R(11,12)        =      1.389799    -0.001169    -0.000081     1.389718
	   20 R(11,20)        =      1.087290     0.000205     0.000002     1.087291
	   21 R(13,14)        =      1.818435    -0.000269    -0.000079     1.818356
	   22 R(14,21)        =      1.091386     0.000478     0.000073     1.091459
	   23 R(14,22)        =      1.091480     0.000654     0.000132     1.091612
	   24 R(14,23)        =      1.088919    -0.002079    -0.000288     1.088632
	   25 B(1,2,3)        =    114.302378    -0.000017    -0.062556   114.239821
	   26 B(1,2,15)       =    123.336863     0.000004     0.030293   123.367156
	   27 B(1,12,7)       =    120.688270     0.000008     0.017488   120.705758
	   28 B(1,12,11)      =    119.238576    -0.000010    -0.019112   119.219464
	   29 B(2,1,12)       =    126.316447    -0.000009    -0.026727   126.289721
	   30 B(2,1,19)       =    114.777160     0.000010     0.031019   114.808180
	   31 B(2,3,4)        =    109.655727     0.000006     0.042351   109.698078
	   32 B(2,3,5)        =    105.689845     0.000008     0.036666   105.726511
	   33 B(2,3,6)        =    115.801837     0.000023     0.019179   115.821015
	   34 B(3,2,15)       =    122.257008     0.000014     0.036697   122.293704
	   35 B(3,6,7)        =    114.753690    -0.000015    -0.058697   114.694993
	   36 B(3,6,16)       =    119.929907     0.000003     0.021452   119.951359
	   37 B(4,3,5)        =    108.548760    -0.000014    -0.111119   108.437642
	   38 B(4,3,6)        =    110.983525    -0.000018     0.000998   110.984523
	   39 B(5,3,6)        =    105.738669    -0.000007     0.000097   105.738766
	   40 B(6,7,8)        =    120.718640    -0.000013    -0.007163   120.711477
	   41 B(6,7,12)       =    120.522227     0.000011     0.009325   120.531552
	   42 B(7,6,16)       =    125.219379     0.000012     0.045401   125.264780
	   43 B(7,8,9)        =    121.551454    -0.000003    -0.004068   121.547386
	   44 B(7,8,18)       =    118.055077    -0.000001    -0.011596   118.043482
	   45 B(7,12,11)      =    120.060687     0.000003    -0.002503   120.058184
	   46 B(8,7,12)       =    118.743682     0.000002     0.000527   118.744209
	   47 B(8,9,10)       =    119.581722     0.000009     0.022182   119.603903
	   48 B(8,9,17)       =    118.754387    -0.000021    -0.062375   118.692012
	   49 B(9,8,18)       =    120.391035     0.000005     0.016870   120.407905
	   50 B(9,10,11)      =    119.406902    -0.000018    -0.040865   119.366037
	   51 B(9,10,13)      =    126.349923     0.000048     0.104346   126.454270
	   52 B(10,9,17)      =    121.662331     0.000012     0.039694   121.702026
	   53 B(10,11,12)     =    120.645032     0.000007     0.025775   120.670807
	   54 B(10,11,20)     =    119.712388    -0.000002    -0.013819   119.698569
	   55 B(10,13,14)     =    106.959620     0.000122     0.266521   107.226141
	   56 B(11,10,13)     =    114.229455    -0.000030    -0.063464   114.165991
	   57 B(12,1,19)      =    118.565317    -0.000002    -0.020133   118.545183
	   58 B(12,11,20)     =    119.642577    -0.000005    -0.011996   119.630581
	   59 B(13,14,21)     =    109.261303     0.000006     0.026966   109.288269
	   60 B(13,14,22)     =    108.106550     0.000007     0.019012   108.125562
	   61 B(13,14,23)     =    112.435456     0.000023     0.095860   112.531316
	   62 B(21,14,22)     =    109.429845    -0.000011    -0.063930   109.365915
	   63 B(21,14,23)     =    109.207584    -0.000012    -0.030224   109.177361
	   64 B(22,14,23)     =    108.354868    -0.000014    -0.052059   108.302809
	   65 D(1,2,3,4)      =    155.621746     0.000000     0.243829   155.865575
	   66 D(1,2,3,5)      =    -87.557640    -0.000002     0.154482   -87.403158
	   67 D(1,2,3,6)      =     29.105814     0.000000     0.190330    29.296144
	   68 D(1,12,7,6)     =      0.506378     0.000001     0.192842     0.699220
	   69 D(1,12,7,8)     =   -178.074062     0.000000     0.063554  -178.010509
	   70 D(1,12,11,10)   =    178.071510    -0.000001    -0.121011   177.950500
	   71 D(1,12,11,20)   =     -1.907607    -0.000000    -0.065984    -1.973591
	   72 D(2,1,12,7)     =     -2.874968    -0.000001    -0.208385    -3.083353
	   73 D(2,1,12,11)    =    178.408691     0.000001    -0.011100   178.397591
	   74 D(2,3,6,7)      =    -31.248407     0.000000    -0.195382   -31.443789
	   75 D(2,3,6,16)     =    152.148312    -0.000002    -0.342581   151.805731
	   76 D(3,2,1,12)     =    -12.548352     0.000001     0.021192   -12.527160
	   77 D(3,2,1,19)     =    174.300054     0.000002     0.178693   174.478747
	   78 D(3,6,7,8)      =   -164.709108    -0.000001     0.130753  -164.578355
	   79 D(3,6,7,12)     =     16.738683    -0.000001    -0.001211    16.737472
	   80 D(4,3,2,15)     =    -27.967692     0.000001     0.322096   -27.645597
	   81 D(4,3,6,7)      =   -157.092017    -0.000003    -0.270599  -157.362617
	   82 D(4,3,6,16)     =     26.304702    -0.000004    -0.417798    25.886904
	   83 D(5,3,2,15)     =     88.852921    -0.000001     0.232749    89.085670
	   84 D(5,3,6,7)      =     85.387675     0.000004    -0.139027    85.248648
	   85 D(5,3,6,16)     =    -91.215606     0.000002    -0.286225   -91.501831
	   86 D(6,3,2,15)     =   -154.483625     0.000001     0.268597  -154.215028
	   87 D(6,7,8,9)      =   -179.390780     0.000000    -0.008955  -179.399735
	   88 D(6,7,8,18)     =      1.174772    -0.000001    -0.173047     1.001725
	   89 D(6,7,12,11)    =    179.212190    -0.000000    -0.006303   179.205887
	   90 D(7,8,9,10)     =      0.994837    -0.000000    -0.042795     0.952042
	   91 D(7,8,9,17)     =   -179.451884    -0.000001    -0.109071  -179.560955
	   92 D(7,12,1,19)    =    170.044090    -0.000001    -0.368076   169.676015
	   93 D(7,12,11,10)   =     -0.653046     0.000000     0.074707    -0.578339
	   94 D(7,12,11,20)   =    179.367836     0.000001     0.129734   179.497570
	   95 D(8,7,6,16)     =     11.687320     0.000001     0.285749    11.973070
	   96 D(8,7,12,11)    =      0.631749    -0.000001    -0.135591     0.496158
	   97 D(8,9,10,11)    =     -0.982375    -0.000000    -0.020654    -1.003029
	   98 D(8,9,10,13)    =   -179.552947    -0.000000    -0.020517  -179.573464
	   99 D(9,8,7,12)     =     -0.813224     0.000001     0.120816    -0.692407
	  100 D(9,10,11,12)   =      0.823651     0.000000     0.004178     0.827830
	  101 D(9,10,11,20)   =   -179.197246    -0.000000    -0.050885  -179.248131
	  102 *D(9,10,13,14)  =      4.742725     0.000000     0.000000     4.742725
	  103 D(10,9,8,18)    =   -179.583765     0.000001     0.124969  -179.458796
	  104 *D(10,13,14,21) =    113.980446     0.000000     0.000000   113.980446
	  105 D(10,13,14,22)  =   -127.007497    -0.000001    -0.050482  -127.057979
	  106 D(10,13,14,23)  =     -7.440240    -0.000001    -0.044037    -7.484277
	  107 D(11,10,9,17)   =    179.477748     0.000000     0.048151   179.525899
	  108 *D(11,10,13,14) =   -173.891742     0.000000    -0.000000  -173.891742
	  109 D(11,12,1,19)   =     -8.672251     0.000000    -0.170791    -8.843042
	  110 D(12,1,2,15)    =    171.085006     0.000000    -0.058236   171.026770
	  111 D(12,7,6,16)    =   -166.864888     0.000000     0.153785  -166.711103
	  112 D(12,7,8,18)    =    179.752329    -0.000000    -0.043277   179.709052
	  113 D(12,11,10,13)  =    179.561188     0.000001     0.006379   179.567567
	  114 D(13,10,9,17)   =      0.907176     0.000000     0.048288     0.955464
	  115 D(13,10,11,20)  =     -0.459710    -0.000000    -0.048684    -0.508394
	  116 D(15,2,1,19)    =     -2.066588     0.000001     0.099264    -1.967324
	  117 D(17,9,8,18)    =     -0.030486     0.000000     0.058693     0.028207
	 ---------------------------------------------------------------------------
	Successfully symmetrized geometry.

  ==> Convergence Check <==

  Measures of convergence in internal coordinates in au.
  Criteria marked as inactive (o), active & met (*), and active & unmet ( ).
  ---------------------------------------------------------------------------------------------
   Step     Total Energy     Delta E     MAX Force     RMS Force      MAX Disp      RMS Disp   
  ---------------------------------------------------------------------------------------------
    Convergence Criteria             o    2.50e-03 *    1.70e-03 *    1.00e-02 *    6.70e-03 *
  ---------------------------------------------------------------------------------------------
      5   -1188.11855318   -2.85e-05 o    1.87e-03 *    3.16e-04 *    7.29e-03 *    2.05e-03 *  ~
  ---------------------------------------------------------------------------------------------


  **** Optimization is complete! (in 5 steps) ****

  ==> Optimization Summary <==

  Measures of convergence in internal coordinates in au.
  --------------------------------------------------------------------------------------------------------------- ~
   Step         Total Energy             Delta E       MAX Force       RMS Force        MAX Disp        RMS Disp  ~
  --------------------------------------------------------------------------------------------------------------- ~
      1   -1188.118275681435  -1188.118275681435      0.00683933      0.00093611      0.04476326      0.00924629  ~
      2   -1188.118378966765     -0.000103285330      0.00445120      0.00066674      0.05464303      0.01381785  ~
      3   -1188.118493544098     -0.000114577333      0.00291252      0.00037093      0.03558638      0.00777546  ~
      4   -1188.118524641379     -0.000031097281      0.00182585      0.00030817      0.04665907      0.01373957  ~
      5   -1188.118553181646     -0.000028540267      0.00187089      0.00031629      0.00729195      0.00204798  ~
  --------------------------------------------------------------------------------------------------------------- ~

	Writing optimization data to binary file.
	Final energy is  -1188.1185531816463
	Final (previous) structure:
	Cartesian Geometry (in Angstrom)
	    N    -1.1533452736  -1.3770931324  -0.3102593606
	    C    -2.4458958770  -0.9372559471  -0.1905063029
	    C    -2.5810099437   0.4915648107   0.3828348212
	    F    -3.7381838818   1.0267166516  -0.0130814367
	    F    -2.6128844719   0.3425461817   1.7480925877
	    C    -1.3978874531   1.4499459158   0.0919838752
	    C    -0.0884830394   0.7955844534  -0.0127950434
	    C     1.0899289034   1.5436823704   0.0461235339
	    C     2.3335469153   0.9459167652  -0.0632998729
	    C     2.4207287311  -0.4403497422  -0.2586157668
	    C     1.2466025056  -1.2014780974  -0.3191921983
	    C     0.0018567220  -0.5939550066  -0.2048893076
	    S     3.9052308334  -1.3847148344  -0.4102434582
	    C     5.2915485664  -0.2434663210  -0.1232229620
	    O    -3.4064016697  -1.6235769427  -0.4433786242
	    O    -1.5885638930   2.6439883670   0.0314361249
	    H     3.2175667998   1.5679558229  -0.0024229009
	    H     1.0069967468   2.6165633104   0.1907372887
	    H    -1.0587895867  -2.3431697387  -0.5991316847
	    H     1.3088490529  -2.2781610903  -0.4573148626
	    H     5.8066356667  -0.5267714963   0.7963135784
	    H     5.9802064823  -0.3275923027  -0.9658393200
	    H     4.9674513771   0.7933380078  -0.0474389016
	Saving final (previous) structure.
			--------------------------
			 OPTKING Finished Execution 
			--------------------------

    Final optimized geometry and variables:
    Molecular point group: c1
    Full point group: C1

    Geometry (in Angstrom), charge = 0, multiplicity = 1:

    N           -1.153345278138    -1.377093137778    -0.310259361820
    C           -2.445895886574    -0.937255950803    -0.190506303677
    C           -2.581009953855     0.491564812666     0.382834822659
    F           -3.738183896506     1.026716655634    -0.013081436726
    F           -2.612884482200     0.342546183010     1.748092594593
    C           -1.397887458548     1.449945921497     0.091983875523
    C           -0.088483039775     0.795584456565    -0.012795043427
    C            1.089928907707     1.543682376511     0.046123534036
    C            2.333546924473     0.945916768903    -0.063299873154
    C            2.420728740624    -0.440349743915    -0.258615767820
    C            1.246602510462    -1.201478102097    -0.319192199505
    C            0.001856721999    -0.593955008981    -0.204889308443
    S            3.905230848713    -1.384714839827    -0.410243459787
    C            5.291548587243    -0.243466321913    -0.123222962522
    O           -3.406401683091    -1.623576949115    -0.443378625915
    O           -1.588563899198     2.643988377396     0.031436125063
    H            3.217566812414     1.567955829021    -0.002422900950
    H            1.006996750794     2.616563320734     0.190737289495
    H           -1.058789590906    -2.343169747894    -0.599131687020
    H            1.308849057998    -2.278161099274    -0.457314864381
    H            5.806635689539    -0.526771498336     0.796313581486
    H            5.980206505815    -0.327592303957    -0.965839323844
    H            4.967451396580     0.793338010924    -0.047438901784

	Removing binary optimization data file.
	Cleaning optimization helper files.

    Psi4 stopped on: Tuesday, 22 June 2021 05:21AM
    Psi4 wall time for execution: 0:29:08.30

*** Psi4 exiting successfully. Buy a developer a beer!
