
    -----------------------------------------------------------------------
          Psi4: An Open-Source Ab Initio Electronic Structure Package
                               Psi4 1.3.2 release

                         Git: Rev {HEAD} ecbda83 


    R. M. Parrish, L. A. Burns, D. G. A. Smith, A. C. Simmonett,
    A. E. DePrince III, E. G. Hohenstein, U. Bozkaya, A. Yu. Sokolov,
    R. Di Remigio, R. M. Richard, J. F. Gonthier, A. M. James,
    H. R. McAlexander, A. Kumar, M. Saitow, X. Wang, B. P. Pritchard,
    P. Verma, H. F. Schaefer III, K. Patkowski, R. A. King, E. F. Valeev,
    F. A. Evangelista, J. M. Turney, T. D. Crawford, and C. D. Sherrill,
    J. Chem. Theory Comput. 13(7) pp 3185--3197 (2017).
    (doi: 10.1021/acs.jctc.7b00174)


                         Additional Contributions by
    P. Kraus, H. Kruse, M. H. Lechner, M. C. Schieber, R. A. Shaw,
    A. Alenaizan, R. Galvelis, Z. L. Glick, S. Lehtola, and J. P. Misiewicz

    -----------------------------------------------------------------------


    Psi4 started on: Tuesday, 22 June 2021 07:48AM

    Process ID: 32171
    Host:       cpu-spot-dy-c5n2xlarge-1
    PSIDATADIR: /fsx/users/francis/anaconda3/envs/poltype-dev/share/psi4
    Memory:     500.0 MiB
    Threads:    1
    
  ==> Input File <==

--------------------------------------------------------------------------
molecule { 
0 1
 N   -1.004326   -1.506978    0.187257
 C   -2.257627   -1.177496    0.632676
 C   -2.555045    0.338859    0.664043
 F   -3.146342    0.619410   -0.544679
 F   -3.434560    0.601381    1.635577
 C   -1.332979    1.286460    0.762850
 C   -0.075272    0.746122    0.235978
 C    1.022830    1.584464    0.024364
 C    2.223175    1.096882   -0.462426
 C    2.351180   -0.272845   -0.743188
 C    1.261475   -1.124987   -0.525570
 C    0.056408   -0.624931   -0.045118
 S    3.811871   -1.071954   -1.330461
 C    5.107863    0.198344   -1.350446
 O   -3.094828   -1.999253    0.923522
 O   -1.481557    2.405762    1.198491
 H    3.034860    1.789579   -0.647295
 H    0.906239    2.641289    0.244663
 H   -0.840204   -2.500939    0.082436
 H    1.360432   -2.189098   -0.726037
 H    6.036118   -0.304312   -1.068210
 H    5.205455    0.668695   -2.330015
 H    4.927329    0.955809   -0.585434
}
memory 16GB
set_num_threads(8)
psi4_io.set_default_path("/scratch/Psi4-ligand")
set freeze_core True
E, wfn = energy('wb97x-d/6-311++g**',return_wfn=True)
oeprop(wfn,"WIBERG_LOWDIN_INDICES")
clean()
--------------------------------------------------------------------------

  Memory set to  14.901 GiB by Python driver.
  Threads set to 8 by Python driver.

*** tstart() called on cpu-spot-dy-c5n2xlarge-1
*** at Tue Jun 22 07:48:19 2021

   => Loading Basis Set <=

    Name: 6-311++G**
    Role: ORBITAL
    Keyword: BASIS
    atoms 1             entry N          line   140 file /fsx/users/francis/anaconda3/envs/poltype-dev/share/psi4/basis/6-311ppgss.gbs 
    atoms 2-3, 6-12, 14 entry C          line   119 file /fsx/users/francis/anaconda3/envs/poltype-dev/share/psi4/basis/6-311ppgss.gbs 
    atoms 4-5           entry F          line   182 file /fsx/users/francis/anaconda3/envs/poltype-dev/share/psi4/basis/6-311ppgss.gbs 
    atoms 13            entry S          line   419 file /fsx/users/francis/anaconda3/envs/poltype-dev/share/psi4/basis/6-311ppgss.gbs 
    atoms 15-16         entry O          line   161 file /fsx/users/francis/anaconda3/envs/poltype-dev/share/psi4/basis/6-311ppgss.gbs 
    atoms 17-23         entry H          line    42 file /fsx/users/francis/anaconda3/envs/poltype-dev/share/psi4/basis/6-311ppgss.gbs 


         ---------------------------------------------------------
                                   SCF
               by Justin Turney, Rob Parrish, Andy Simmonett
                          and Daniel G. A. Smith
                              RKS Reference
                        8 Threads,  15258 MiB Core
         ---------------------------------------------------------

  ==> Geometry <==

    Molecular point group: c1
    Full point group: C1

    Geometry (in Angstrom), charge = 0, multiplicity = 1:

       Center              X                  Y                   Z               Mass       
    ------------   -----------------  -----------------  -----------------  -----------------
         N           -1.004326000462    -1.506978131024     0.187256911343    14.003074004430
         C           -2.257627000462    -1.177496131024     0.632675911343    12.000000000000
         C           -2.555045000462     0.338858868976     0.664042911343    12.000000000000
         F           -3.146342000462     0.619409868976    -0.544679088657    18.998403162730
         F           -3.434560000462     0.601380868976     1.635576911343    18.998403162730
         C           -1.332979000462     1.286459868976     0.762849911343    12.000000000000
         C           -0.075272000462     0.746121868976     0.235977911343    12.000000000000
         C            1.022829999538     1.584463868976     0.024363911343    12.000000000000
         C            2.223174999538     1.096881868976    -0.462426088657    12.000000000000
         C            2.351179999538    -0.272845131024    -0.743188088657    12.000000000000
         C            1.261474999538    -1.124987131024    -0.525570088657    12.000000000000
         C            0.056407999538    -0.624931131024    -0.045118088657    12.000000000000
         S            3.811870999538    -1.071954131024    -1.330461088657    31.972071174400
         C            5.107862999538     0.198343868976    -1.350446088657    12.000000000000
         O           -3.094828000462    -1.999253131024     0.923521911343    15.994914619570
         O           -1.481557000462     2.405761868976     1.198490911343    15.994914619570
         H            3.034859999538     1.789578868976    -0.647295088657     1.007825032230
         H            0.906238999538     2.641288868976     0.244662911343     1.007825032230
         H           -0.840204000462    -2.500939131024     0.082435911343     1.007825032230
         H            1.360431999538    -2.189098131024    -0.726037088657     1.007825032230
         H            6.036117999538    -0.304312131024    -1.068210088657     1.007825032230
         H            5.205454999538     0.668694868976    -2.330015088657     1.007825032230
         H            4.927328999538     0.955808868976    -0.585434088657     1.007825032230

  Running in c1 symmetry.

  Rotational constants: A =      0.03962  B =      0.00834  C =      0.00720 [cm^-1]
  Rotational constants: A =   1187.64803  B =    249.89701  C =    215.88606 [MHz]
  Nuclear repulsion = 1189.625589089349432

  Charge       = 0
  Multiplicity = 1
  Electrons    = 124
  Nalpha       = 62
  Nbeta        = 62

  ==> Algorithm <==

  SCF Algorithm Type is DF.
  DIIS enabled.
  MOM disabled.
  Fractional occupation disabled.
  Guess Type is SAD.
  Energy threshold   = 1.00e-06
  Density threshold  = 1.00e-06
  Integral threshold = 0.00e+00

  ==> Primary Basis <==

  Basis Set: 6-311++G**
    Blend: 6-311++G**
    Number of shells: 199
    Number of basis function: 409
    Number of Cartesian functions: 425
    Spherical Harmonics?: true
    Max angular momentum: 2

  ==> DFT Potential <==

   => Composite Functional: WB97X-D <= 

    wB97X-D Hyb-GGA Exchange-Correlation Functional

    J.-D. Chai and M. Head-Gordon, Phys. Chem. Chem. Phys. 10, 6615 (2008)

    Deriv               =              1
    GGA                 =           TRUE
    Meta                =          FALSE

    Exchange Hybrid     =           TRUE
    MP2 Hybrid          =          FALSE

   => Exchange-Correlation Functionals <=

    1.0000   wB97D range-separated functional

   => Exact (HF) Exchange <=

    0.7780            HF,LR [omega = 0.2000]
    0.2220               HF 

   => Molecular Quadrature <=

    Radial Scheme          =       TREUTLER
    Pruning Scheme         =           FLAT
    Nuclear Scheme         =       TREUTLER

    BS radius alpha        =              1
    Pruning alpha          =              1
    Radial Points          =             75
    Spherical Points       =            302
    Total Points           =         520868
    Total Blocks           =           3869
    Max Points             =            256
    Max Functions          =            321

   => WB97X-D: Empirical Dispersion <=

    Chai and Head-Gordon Dispersion Correction
    Chai, J.-D.; Head-Gordon, M. (2010), J. Chem. Phys., 132: 6615-6620

        s6 =       1.000000

   => Loading Basis Set <=

    Name: (6-311++G** AUX)
    Role: JKFIT
    Keyword: DF_BASIS_SCF
    atoms 1             entry N          line   224 file /fsx/users/francis/anaconda3/envs/poltype-dev/share/psi4/basis/aug-cc-pvtz-jkfit.gbs 
    atoms 2-3, 6-12, 14 entry C          line   162 file /fsx/users/francis/anaconda3/envs/poltype-dev/share/psi4/basis/aug-cc-pvtz-jkfit.gbs 
    atoms 4-5           entry F          line   348 file /fsx/users/francis/anaconda3/envs/poltype-dev/share/psi4/basis/aug-cc-pvtz-jkfit.gbs 
    atoms 13            entry S          line   730 file /fsx/users/francis/anaconda3/envs/poltype-dev/share/psi4/basis/aug-cc-pvtz-jkfit.gbs 
    atoms 15-16         entry O          line   286 file /fsx/users/francis/anaconda3/envs/poltype-dev/share/psi4/basis/aug-cc-pvtz-jkfit.gbs 
    atoms 17-23         entry H          line    70 file /fsx/users/francis/anaconda3/envs/poltype-dev/share/psi4/basis/aug-cc-pvtz-jkfit.gbs 

  ==> Pre-Iterations <==

   -------------------------------------------------------
    Irrep   Nso     Nmo     Nalpha   Nbeta   Ndocc  Nsocc
   -------------------------------------------------------
     A        409     409       0       0       0       0
   -------------------------------------------------------
    Total     409     409      62      62      62       0
   -------------------------------------------------------

  ==> Integral Setup <==

  ==> DiskDFJK: Density-Fitted J/K Matrices <==

    J tasked:                  Yes
    K tasked:                  Yes
    wK tasked:                 Yes
    Omega:               2.000E-01
    OpenMP threads:              8
    Integrals threads:           8
    Memory [MiB]:             7970
    Algorithm:                Core
    Integral Cache:           NONE
    Schwarz Cutoff:          1E-12
    Fitting Condition:       1E-10

   => Auxiliary Basis Set <=

  Basis Set: (6-311++G** AUX)
    Blend: AUG-CC-PVTZ-JKFIT
    Number of shells: 590
    Number of basis function: 2028
    Number of Cartesian functions: 2530
    Spherical Harmonics?: true
    Max angular momentum: 4

  Cached 100.0% of DFT collocation blocks in 3.392 [GiB].

  Minimum eigenvalue in the overlap matrix is 2.4294006257E-07.
  Using Symmetric Orthogonalization.

  SCF Guess: Superposition of Atomic Densities via on-the-fly atomic UHF.

  ==> Iterations <==

                           Total Energy        Delta E     RMS |[F,P]|

   @DF-RKS iter SAD: -1187.90750407731844   -1.18791e+03   0.00000e+00 
   @DF-RKS iter   1: -1187.71191550674803    1.95589e-01   2.90538e-03 DIIS
   @DF-RKS iter   2: -1187.76339567848572   -5.14802e-02   2.96287e-03 DIIS
   @DF-RKS iter   3: -1188.30421987802856   -5.40824e-01   6.50775e-04 DIIS
   @DF-RKS iter   4: -1188.32778087577822   -2.35610e-02   2.38729e-04 DIIS
   @DF-RKS iter   5: -1188.33180350898488   -4.02263e-03   6.28631e-05 DIIS
   @DF-RKS iter   6: -1188.33223647116529   -4.32962e-04   1.92335e-05 DIIS
   @DF-RKS iter   7: -1188.33229284199251   -5.63708e-05   8.14368e-06 DIIS
   @DF-RKS iter   8: -1188.33230935728056   -1.65153e-05   3.28995e-06 DIIS
   @DF-RKS iter   9: -1188.33231250595463   -3.14867e-06   1.50203e-06 DIIS
   @DF-RKS iter  10: -1188.33231286543628   -3.59482e-07   5.62934e-07 DIIS
  Energy and wave function converged.


  ==> Post-Iterations <==

    Orbital Energies [Eh]
    ---------------------

    Doubly Occupied:                                                      

       1A    -89.053178     2A    -24.840590     3A    -24.839901  
       4A    -19.270781     5A    -19.261474     6A    -14.515719  
       7A    -10.484384     8A    -10.436572     9A    -10.411594  
      10A    -10.390044    11A    -10.372636    12A    -10.341068  
      13A    -10.334444    14A    -10.330590    15A    -10.330082  
      16A    -10.324214    17A     -8.093738    18A     -6.043257  
      19A     -6.038725    20A     -6.032909    21A     -1.390643  
      22A     -1.328966    23A     -1.192713    24A     -1.181255  
      25A     -1.097966    26A     -1.005756    27A     -0.943683  
      28A     -0.906811    29A     -0.888570    30A     -0.868978  
      31A     -0.799766    32A     -0.765603    33A     -0.753853  
      34A     -0.745594    35A     -0.697560    36A     -0.682806  
      37A     -0.670618    38A     -0.646254    39A     -0.630704  
      40A     -0.593393    41A     -0.587549    42A     -0.570362  
      43A     -0.564008    44A     -0.559116    45A     -0.557389  
      46A     -0.551780    47A     -0.549562    48A     -0.534762  
      49A     -0.520463    50A     -0.514892    51A     -0.509449  
      52A     -0.499008    53A     -0.492235    54A     -0.488794  
      55A     -0.475463    56A     -0.443912    57A     -0.431746  
      58A     -0.399265    59A     -0.395740    60A     -0.364806  
      61A     -0.341373    62A     -0.318879  

    Virtual:                                                              

      63A     -0.042127    64A      0.013030    65A      0.025779  
      66A      0.034407    67A      0.047073    68A      0.052065  
      69A      0.059973    70A      0.065404    71A      0.070208  
      72A      0.073853    73A      0.079852    74A      0.084548  
      75A      0.093159    76A      0.098187    77A      0.102454  
      78A      0.105329    79A      0.112195    80A      0.117566  
      81A      0.125912    82A      0.126675    83A      0.131407  
      84A      0.138955    85A      0.143414    86A      0.147950  
      87A      0.152624    88A      0.156199    89A      0.162978  
      90A      0.167798    91A      0.171125    92A      0.173242  
      93A      0.174526    94A      0.176645    95A      0.183352  
      96A      0.190419    97A      0.191672    98A      0.196184  
      99A      0.198730   100A      0.202993   101A      0.203787  
     102A      0.209497   103A      0.212174   104A      0.215981  
     105A      0.221107   106A      0.226220   107A      0.229235  
     108A      0.234567   109A      0.238361   110A      0.246367  
     111A      0.248488   112A      0.256722   113A      0.259989  
     114A      0.268789   115A      0.271738   116A      0.274583  
     117A      0.277709   118A      0.282044   119A      0.287214  
     120A      0.292521   121A      0.295848   122A      0.299859  
     123A      0.309877   124A      0.312102   125A      0.316451  
     126A      0.318435   127A      0.321172   128A      0.327545  
     129A      0.334424   130A      0.339866   131A      0.344815  
     132A      0.350829   133A      0.357001   134A      0.365189  
     135A      0.367719   136A      0.371694   137A      0.373504  
     138A      0.377399   139A      0.386711   140A      0.389018  
     141A      0.394630   142A      0.404657   143A      0.407057  
     144A      0.416497   145A      0.422841   146A      0.431097  
     147A      0.438799   148A      0.442362   149A      0.447802  
     150A      0.461284   151A      0.463522   152A      0.465695  
     153A      0.473510   154A      0.490985   155A      0.494931  
     156A      0.504706   157A      0.514634   158A      0.516298  
     159A      0.533668   160A      0.535358   161A      0.546654  
     162A      0.559685   163A      0.563868   164A      0.574323  
     165A      0.586533   166A      0.603300   167A      0.607106  
     168A      0.611245   169A      0.629488   170A      0.638815  
     171A      0.641456   172A      0.651746   173A      0.663504  
     174A      0.664744   175A      0.677374   176A      0.688973  
     177A      0.713649   178A      0.719121   179A      0.728053  
     180A      0.732783   181A      0.740438   182A      0.746533  
     183A      0.751045   184A      0.755353   185A      0.758905  
     186A      0.770239   187A      0.779935   188A      0.792612  
     189A      0.800790   190A      0.810244   191A      0.814178  
     192A      0.826367   193A      0.837508   194A      0.855792  
     195A      0.869099   196A      0.871574   197A      0.887331  
     198A      0.890369   199A      0.910351   200A      0.917290  
     201A      0.939603   202A      0.946036   203A      0.954295  
     204A      0.962420   205A      0.968827   206A      0.980962  
     207A      0.993460   208A      0.999986   209A      1.007822  
     210A      1.026661   211A      1.039056   212A      1.044490  
     213A      1.054240   214A      1.069406   215A      1.098029  
     216A      1.102915   217A      1.116948   218A      1.134164  
     219A      1.154219   220A      1.172019   221A      1.176489  
     222A      1.188252   223A      1.193828   224A      1.209465  
     225A      1.222617   226A      1.237495   227A      1.255998  
     228A      1.274726   229A      1.276546   230A      1.290878  
     231A      1.300082   232A      1.321378   233A      1.333199  
     234A      1.338587   235A      1.353913   236A      1.383715  
     237A      1.397876   238A      1.443368   239A      1.488622  
     240A      1.509918   241A      1.520812   242A      1.523897  
     243A      1.537131   244A      1.549716   245A      1.565911  
     246A      1.570140   247A      1.579127   248A      1.593283  
     249A      1.598033   250A      1.612331   251A      1.615368  
     252A      1.618244   253A      1.634420   254A      1.646298  
     255A      1.648601   256A      1.674766   257A      1.679478  
     258A      1.695424   259A      1.711892   260A      1.721303  
     261A      1.736067   262A      1.752639   263A      1.756754  
     264A      1.775159   265A      1.780451   266A      1.804037  
     267A      1.810584   268A      1.831667   269A      1.838840  
     270A      1.843979   271A      1.877085   272A      1.882521  
     273A      1.888161   274A      1.931883   275A      1.944098  
     276A      1.957816   277A      1.989052   278A      1.999304  
     279A      2.001097   280A      2.014536   281A      2.029569  
     282A      2.039189   283A      2.062919   284A      2.065948  
     285A      2.093489   286A      2.096880   287A      2.115081  
     288A      2.129197   289A      2.145429   290A      2.154211  
     291A      2.192887   292A      2.202740   293A      2.235472  
     294A      2.238281   295A      2.272721   296A      2.281558  
     297A      2.298275   298A      2.321338   299A      2.341345  
     300A      2.352071   301A      2.427805   302A      2.486058  
     303A      2.504347   304A      2.520326   305A      2.533334  
     306A      2.550293   307A      2.572105   308A      2.599722  
     309A      2.631684   310A      2.647811   311A      2.651493  
     312A      2.678068   313A      2.749961   314A      2.769202  
     315A      2.786263   316A      2.803841   317A      2.808398  
     318A      2.819778   319A      2.834236   320A      2.847933  
     321A      2.859945   322A      2.890475   323A      2.893306  
     324A      2.904817   325A      2.927758   326A      2.939455  
     327A      2.972259   328A      2.974751   329A      2.988985  
     330A      3.017792   331A      3.036665   332A      3.050289  
     333A      3.071960   334A      3.082977   335A      3.117339  
     336A      3.134842   337A      3.166117   338A      3.188636  
     339A      3.283856   340A      3.288639   341A      3.325059  
     342A      3.368791   343A      3.407848   344A      3.430077  
     345A      3.437856   346A      3.484427   347A      3.531727  
     348A      3.549397   349A      3.595516   350A      3.631885  
     351A      3.648341   352A      3.684205   353A      3.702332  
     354A      3.764424   355A      3.786617   356A      3.831567  
     357A      3.848797   358A      3.858138   359A      3.871809  
     360A      3.899821   361A      3.930838   362A      3.951426  
     363A      3.969302   364A      4.005323   365A      4.024244  
     366A      4.082712   367A      4.149081   368A      4.186991  
     369A      4.243926   370A      4.276401   371A      4.357438  
     372A      4.506547   373A      4.820419   374A      4.890061  
     375A      4.917162   376A      5.044641   377A      5.162654  
     378A      5.170821   379A      5.186912   380A      5.319293  
     381A      5.321717   382A      5.831547   383A      5.876846  
     384A      6.490894   385A      6.492748   386A      6.518464  
     387A      6.543611   388A      6.649234   389A      6.902079  
     390A      8.095463   391A     17.440879   392A     17.613367  
     393A     17.650887   394A     23.629250   395A     23.746654  
     396A     23.968275   397A     24.001276   398A     24.018510  
     399A     24.032590   400A     24.036494   401A     24.134815  
     402A     24.189783   403A     24.276926   404A     35.754274  
     405A     50.131678   406A     50.151104   407A     66.913930  
     408A     66.962286   409A    189.358772  

    Final Occupation by Irrep:
              A 
    DOCC [    62 ]

  @DF-RKS Final Energy: -1188.33231286543628

   => Energetics <=

    Nuclear Repulsion Energy =           1189.6255890893494325
    One-Electron Energy =               -3994.2279067174822558
    Two-Electron Energy =                1706.0211791443462062
    DFT Exchange-Correlation Energy =     -89.7375737997592324
    Empirical Dispersion Energy =          -0.0136005818903703
    VV10 Nonlocal Energy =                  0.0000000000000000
    Total Energy =                      -1188.3323128654362790

Computation Completed


Properties will be evaluated at   0.000000,   0.000000,   0.000000 [a0]

Properties computed using the SCF density matrix

  Nuclear Dipole Moment: [e a0]
     X:    25.6299      Y:    -0.1789      Z:    -5.7699

  Electronic Dipole Moment: [e a0]
     X:   -22.5380      Y:    -0.1767      Z:     4.9237

  Dipole Moment: [e a0]
     X:     3.0918      Y:    -0.3556      Z:    -0.8462     Total:     3.2252

  Dipole Moment: [D]
     X:     7.8586      Y:    -0.9038      Z:    -2.1508     Total:     8.1976


*** tstop() called on cpu-spot-dy-c5n2xlarge-1 at Tue Jun 22 07:49:47 2021
Module time:
	user time   =     639.73 seconds =      10.66 minutes
	system time =      10.48 seconds =       0.17 minutes
	total time  =         88 seconds =       1.47 minutes
Total time:
	user time   =     639.73 seconds =      10.66 minutes
	system time =      10.48 seconds =       0.17 minutes
	total time  =         88 seconds =       1.47 minutes


Properties will be evaluated at   0.000000,   0.000000,   0.000000 [a0]
OEProp: No title given, name of density matrix used for the following properties is 'SCF density'


  Wiberg Bond Indices using Orthogonal Lowdin Orbitals:

  Irrep: 1 Size: 23 x 23

                 1                   2                   3                   4                   5

    1     0.00000000000000     1.31573386586074     0.10227750445647     0.02113340478590     0.01084720090577
    2     1.31573386586074     0.00000000000000     0.88394817895180     0.11340546541995     0.10699619728024
    3     0.10227750445647     0.88394817895180     0.00000000000000     1.31452643215902     1.40310821233773
    4     0.02113340478590     0.11340546541995     1.31452643215902     0.00000000000000     0.13709936654668
    5     0.01084720090577     0.10699619728024     1.40310821233773     0.13709936654668     0.00000000000000
    6     0.03463869526629     0.07582369406204     0.89823177335905     0.11316862736454     0.10429291110388
    7     0.11680981667694     0.03605328088366     0.10135572632226     0.02045328956932     0.01184064183122
    8     0.01521774956050     0.00381612888861     0.01394668526773     0.00293273264367     0.00205617813591
    9     0.01452153405994     0.00527917818142     0.00259267483718     0.00056025651949     0.00042848768415
   10     0.01720738814741     0.00304867426232     0.00155111547473     0.00107456445660     0.00025689721236
   11     0.13398559304942     0.02661906300156     0.00450412383256     0.00111559323532     0.00044341637240
   12     1.18688580199349     0.09743971655185     0.03264361389146     0.00995768298589     0.00371046301379
   13     0.00288352341479     0.00103372104686     0.00070190537813     0.00061014710491     0.00013124027216
   14     0.00047766964284     0.00016750983986     0.00008644190451     0.00002616494333     0.00001417041070
   15     0.24534896884804     2.29545452520276     0.15057883498288     0.03072014449189     0.04342258693353
   16     0.00462311481122     0.01708181285750     0.15891481394964     0.03360177563263     0.04616638217120
   17     0.00071715513076     0.00022389201894     0.00048222587474     0.00005330837676     0.00008486087330
   18     0.00129310838077     0.00049123046761     0.00210262355413     0.00031738230457     0.00040627498416
   19     0.91403931749163     0.07288183180094     0.01385384162502     0.00155255256813     0.00201494156704
   20     0.02325126620379     0.00230712701489     0.00074616620963     0.00010442175533     0.00012441972151
   21     0.00007271010650     0.00002972102021     0.00001413594770     0.00000745139602     0.00000183745101
   22     0.00009003019393     0.00003963016398     0.00002368671474     0.00001751200336     0.00000345624878
   23     0.00011310827989     0.00003761569996     0.00004116705915     0.00000999347099     0.00000623699920

                 6                   7                   8                   9                  10

    1     0.03463869526629     0.11680981667694     0.01521774956050     0.01452153405994     0.01720738814741
    2     0.07582369406204     0.03605328088366     0.00381612888861     0.00527917818142     0.00304867426232
    3     0.89823177335905     0.10135572632226     0.01394668526773     0.00259267483718     0.00155111547473
    4     0.11316862736454     0.02045328956932     0.00293273264367     0.00056025651949     0.00107456445660
    5     0.10429291110388     0.01184064183122     0.00205617813591     0.00042848768415     0.00025689721236
    6     0.00000000000000     1.06130662935681     0.12063217685529     0.02020153263738     0.01487743694390
    7     1.06130662935681     0.00000000000000     1.34645055267826     0.13207558823283     0.10804462353221
    8     0.12063217685529     1.34645055267826     0.00000000000000     1.50078457406632     0.13575511901205
    9     0.02020153263738     0.13207558823283     1.50078457406632     0.00000000000000     1.37631579798060
   10     0.01487743694390     0.10804462353221     0.13575511901205     1.37631579798060     0.00000000000000
   11     0.01587712340038     0.11982281876381     0.12140089255008     0.12533161904978     1.41351107249472
   12     0.11393351771217     1.27233099703164     0.12403401232880     0.10790442394916     0.12939048315618
   13     0.00644304175177     0.02245940887846     0.02514853162295     0.14328773622247     1.30838335599786
   14     0.00031940780087     0.00156656805766     0.00411143042770     0.04408593321943     0.08010751027781
   15     0.01634510358099     0.00885358318772     0.00108628934237     0.00440051313191     0.00195148375000
   16     2.31974531562961     0.16418622502347     0.07361974101395     0.00620740361930     0.01565594788669
   17     0.00148704467569     0.01235649360890     0.08360673216404     0.86101546550271     0.07441367876221
   18     0.02018589443844     0.07719106087956     0.85279647591196     0.08051651313847     0.01215743135129
   19     0.00266621961869     0.01266351170272     0.00171559086653     0.00137242051703     0.00195537662770
   20     0.00171389380401     0.01148792388721     0.00558680906019     0.01253808962494     0.07550765070398
   21     0.00007390774931     0.00026295032783     0.00027423629141     0.00258776829577     0.01122564643395
   22     0.00015852660695     0.00053847091075     0.00031746122704     0.00533010627672     0.00898944413761
   23     0.00012872090562     0.00076046573672     0.00202401649238     0.02156331465616     0.02013246540151

                11                  12                  13                  14                  15

    1     0.13398559304942     1.18688580199349     0.00288352341479     0.00047766964284     0.24534896884804
    2     0.02661906300156     0.09743971655185     0.00103372104686     0.00016750983986     2.29545452520276
    3     0.00450412383256     0.03264361389146     0.00070190537813     0.00008644190451     0.15057883498288
    4     0.00111559323532     0.00995768298589     0.00061014710491     0.00002616494333     0.03072014449189
    5     0.00044341637240     0.00371046301379     0.00013124027216     0.00001417041070     0.04342258693353
    6     0.01587712340038     0.11393351771217     0.00644304175177     0.00031940780087     0.01634510358099
    7     0.11982281876381     1.27233099703164     0.02245940887846     0.00156656805766     0.00885358318772
    8     0.12140089255008     0.12403401232880     0.02514853162295     0.00411143042770     0.00108628934237
    9     0.12533161904978     0.10790442394916     0.14328773622247     0.04408593321943     0.00440051313191
   10     1.41351107249472     0.12939048315618     1.30838335599786     0.08010751027781     0.00195148375000
   11     0.00000000000000     1.39388632571539     0.18430052084367     0.01866744330844     0.01238469070094
   12     1.39388632571539     0.00000000000000     0.02607522424084     0.00316042404100     0.03041219051420
   13     0.18430052084367     0.02607522424084     0.00000000000000     1.24064094737654     0.00084738356419
   14     0.01866744330844     0.00316042404100     1.24064094737654     0.00000000000000     0.00009651151689
   15     0.01238469070094     0.03041219051420     0.00084738356419     0.00009651151689     0.00000000000000
   16     0.00485963791591     0.04071058329548     0.00672458607477     0.00025376465917     0.00642375077812
   17     0.01218857385343     0.00525862681031     0.01993428518531     0.02037072042206     0.00016528855854
   18     0.00531645575638     0.01199784012012     0.00217588397429     0.00042476224031     0.00019152084981
   19     0.02016743737685     0.06531602198190     0.00033553174409     0.00006684009036     0.02807105377084
   20     0.85018508097085     0.07811419567570     0.03336831815449     0.00263965379173     0.00066527032120
   21     0.00199861592832     0.00047179178146     0.07294588187994     0.94423615810301     0.00001852631545
   22     0.00213748306509     0.00057768216050     0.06902825322716     0.94749255070438     0.00004052923916
   23     0.00228475631758     0.00053000127967     0.05762123808272     0.93248013889344     0.00002473903380

                16                  17                  18                  19                  20

    1     0.00462311481122     0.00071715513076     0.00129310838077     0.91403931749163     0.02325126620379
    2     0.01708181285750     0.00022389201894     0.00049123046761     0.07288183180094     0.00230712701489
    3     0.15891481394964     0.00048222587474     0.00210262355413     0.01385384162502     0.00074616620963
    4     0.03360177563263     0.00005330837676     0.00031738230457     0.00155255256813     0.00010442175533
    5     0.04616638217120     0.00008486087330     0.00040627498416     0.00201494156704     0.00012441972151
    6     2.31974531562961     0.00148704467569     0.02018589443844     0.00266621961869     0.00171389380401
    7     0.16418622502347     0.01235649360890     0.07719106087956     0.01266351170272     0.01148792388721
    8     0.07361974101395     0.08360673216404     0.85279647591196     0.00171559086653     0.00558680906019
    9     0.00620740361930     0.86101546550271     0.08051651313847     0.00137242051703     0.01253808962494
   10     0.01565594788669     0.07441367876221     0.01215743135129     0.00195537662770     0.07550765070398
   11     0.00485963791591     0.01218857385343     0.00531645575638     0.02016743737685     0.85018508097085
   12     0.04071058329548     0.00525862681031     0.01199784012012     0.06531602198190     0.07811419567570
   13     0.00672458607477     0.01993428518531     0.00217588397429     0.00033553174409     0.03336831815449
   14     0.00025376465917     0.02037072042206     0.00042476224031     0.00006684009036     0.00263965379173
   15     0.00642375077812     0.00016528855854     0.00019152084981     0.02807105377084     0.00066527032120
   16     0.00000000000000     0.00038007391680     0.01986059422528     0.00050778793399     0.00060282860238
   17     0.00038007391680     0.00000000000000     0.01041950301899     0.00010775106399     0.00117545377053
   18     0.01986059422528     0.01041950301899     0.00000000000000     0.00060576298128     0.00047910439948
   19     0.00050778793399     0.00010775106399     0.00060576298128     0.00000000000000     0.00636571583643
   20     0.00060282860238     0.00117545377053     0.00047910439948     0.00636571583643     0.00000000000000
   21     0.00006692265145     0.00112617455881     0.00004578473032     0.00000777908272     0.00026924072138
   22     0.00017181374437     0.00226101736623     0.00003299219412     0.00000939288797     0.00035658513269
   23     0.00011985965100     0.01216790672906     0.00015117473780     0.00001814006679     0.00053933139761

                21                  22                  23

    1     0.00007271010650     0.00009003019393     0.00011310827989
    2     0.00002972102021     0.00003963016398     0.00003761569996
    3     0.00001413594770     0.00002368671474     0.00004116705915
    4     0.00000745139602     0.00001751200336     0.00000999347099
    5     0.00000183745101     0.00000345624878     0.00000623699920
    6     0.00007390774931     0.00015852660695     0.00012872090562
    7     0.00026295032783     0.00053847091075     0.00076046573672
    8     0.00027423629141     0.00031746122704     0.00202401649238
    9     0.00258776829577     0.00533010627672     0.02156331465616
   10     0.01122564643395     0.00898944413761     0.02013246540151
   11     0.00199861592832     0.00213748306509     0.00228475631758
   12     0.00047179178146     0.00057768216050     0.00053000127967
   13     0.07294588187994     0.06902825322716     0.05762123808272
   14     0.94423615810301     0.94749255070438     0.93248013889344
   15     0.00001852631545     0.00004052923916     0.00002473903380
   16     0.00006692265145     0.00017181374437     0.00011985965100
   17     0.00112617455881     0.00226101736623     0.01216790672906
   18     0.00004578473032     0.00003299219412     0.00015117473780
   19     0.00000777908272     0.00000939288797     0.00001814006679
   20     0.00026924072138     0.00035658513269     0.00053933139761
   21     0.00000000000000     0.03995706988651     0.04366652355876
   22     0.03995706988651     0.00000000000000     0.03956075083242
   23     0.04366652355876     0.03956075083242     0.00000000000000



  Atomic Valences: 

 #  #
 Irrep: 1
      1:  4.1621685
      2:  5.0579121
      3:  5.0862319
      4:  1.8024483
      5:  1.8734564
      6:  4.9422512
      7:  4.6388706
      8:  4.4373141
      9:  4.4689009
     10:  4.8115132
     11:  4.4709883
     12:  4.7347416
     13:  3.2250807
     14:  4.2414927
     15:  2.8775035
     16:  2.9204847
     17:  1.1199962
     18:  1.0991594
     19:  1.1462948
     20:  1.1081285
     21:  1.1193608
     22:  1.1171344
     23:  1.1339817


    Psi4 stopped on: Tuesday, 22 June 2021 07:49AM
    Psi4 wall time for execution: 0:01:28.38

*** Psi4 exiting successfully. Buy a developer a beer!
