
    -----------------------------------------------------------------------
          Psi4: An Open-Source Ab Initio Electronic Structure Package
                               Psi4 1.3.2 release

                         Git: Rev {HEAD} ecbda83 


    R. M. Parrish, L. A. Burns, D. G. A. Smith, A. C. Simmonett,
    A. E. DePrince III, E. G. Hohenstein, U. Bozkaya, A. Yu. Sokolov,
    R. Di Remigio, R. M. Richard, J. F. Gonthier, A. M. James,
    H. R. McAlexander, A. Kumar, M. Saitow, X. Wang, B. P. Pritchard,
    P. Verma, H. F. Schaefer III, K. Patkowski, R. A. King, E. F. Valeev,
    F. A. Evangelista, J. M. Turney, T. D. Crawford, and C. D. Sherrill,
    J. Chem. Theory Comput. 13(7) pp 3185--3197 (2017).
    (doi: 10.1021/acs.jctc.7b00174)


                         Additional Contributions by
    P. Kraus, H. Kruse, M. H. Lechner, M. C. Schieber, R. A. Shaw,
    A. Alenaizan, R. Galvelis, Z. L. Glick, S. Lehtola, and J. P. Misiewicz

    -----------------------------------------------------------------------


    Psi4 started on: Tuesday, 22 June 2021 07:18AM

    Process ID: 31786
    Host:       cpu-spot-dy-c5n2xlarge-1
    PSIDATADIR: /fsx/users/francis/anaconda3/envs/poltype-dev/share/psi4
    Memory:     500.0 MiB
    Threads:    1
    
  ==> Input File <==

--------------------------------------------------------------------------
molecule { 
0 1
 N   -0.623917   -1.562177    0.304061
 C   -1.947135   -1.477281    0.653022
 C   -2.463805   -0.030333    0.810837
 F   -3.788349   -0.001557    0.664036
 F   -2.161774    0.333469    2.105076
 C   -1.778360    1.027949   -0.088026
 C   -0.352688    0.772122   -0.352820
 C    0.470959    1.790326   -0.842601
 C    1.813145    1.558668   -1.092361
 C    2.343782    0.275614   -0.894578
 C    1.531207   -0.749543   -0.411731
 C    0.185551   -0.507536   -0.137604
 S    4.072850    0.004972   -1.226943
 C    4.645328   -0.657594    0.366792
 O   -2.639211   -2.440715    0.881352
 O   -2.394299    1.996324   -0.466826
 H    2.458329    2.359863   -1.436788
 H    0.035021    2.772498   -0.998218
 H   -0.249373   -2.502920    0.280868
 H    1.935153   -1.749041   -0.274644
 H    4.566834    0.096908    1.152547
 H    4.106862   -1.563082    0.653900
 H    5.698912   -0.912675    0.225400
}
memory 16GB
set_num_threads(8)
psi4_io.set_default_path("/scratch/Psi4-ligand")
set freeze_core True
E, wfn = energy('wb97x-d/6-311++g**',return_wfn=True)
oeprop(wfn,"WIBERG_LOWDIN_INDICES")
clean()
--------------------------------------------------------------------------

  Memory set to  14.901 GiB by Python driver.
  Threads set to 8 by Python driver.

*** tstart() called on cpu-spot-dy-c5n2xlarge-1
*** at Tue Jun 22 07:18:27 2021

   => Loading Basis Set <=

    Name: 6-311++G**
    Role: ORBITAL
    Keyword: BASIS
    atoms 1             entry N          line   140 file /fsx/users/francis/anaconda3/envs/poltype-dev/share/psi4/basis/6-311ppgss.gbs 
    atoms 2-3, 6-12, 14 entry C          line   119 file /fsx/users/francis/anaconda3/envs/poltype-dev/share/psi4/basis/6-311ppgss.gbs 
    atoms 4-5           entry F          line   182 file /fsx/users/francis/anaconda3/envs/poltype-dev/share/psi4/basis/6-311ppgss.gbs 
    atoms 13            entry S          line   419 file /fsx/users/francis/anaconda3/envs/poltype-dev/share/psi4/basis/6-311ppgss.gbs 
    atoms 15-16         entry O          line   161 file /fsx/users/francis/anaconda3/envs/poltype-dev/share/psi4/basis/6-311ppgss.gbs 
    atoms 17-23         entry H          line    42 file /fsx/users/francis/anaconda3/envs/poltype-dev/share/psi4/basis/6-311ppgss.gbs 


         ---------------------------------------------------------
                                   SCF
               by Justin Turney, Rob Parrish, Andy Simmonett
                          and Daniel G. A. Smith
                              RKS Reference
                        8 Threads,  15258 MiB Core
         ---------------------------------------------------------

  ==> Geometry <==

    Molecular point group: c1
    Full point group: C1

    Geometry (in Angstrom), charge = 0, multiplicity = 1:

       Center              X                  Y                   Z               Mass       
    ------------   -----------------  -----------------  -----------------  -----------------
         N           -0.623917040319    -1.562177067794     0.304060946962    14.003074004430
         C           -1.947135040319    -1.477281067794     0.653021946962    12.000000000000
         C           -2.463805040319    -0.030333067794     0.810836946962    12.000000000000
         F           -3.788349040319    -0.001557067794     0.664035946962    18.998403162730
         F           -2.161774040319     0.333468932206     2.105075946962    18.998403162730
         C           -1.778360040319     1.027948932206    -0.088026053038    12.000000000000
         C           -0.352688040319     0.772121932206    -0.352820053038    12.000000000000
         C            0.470958959681     1.790325932206    -0.842601053038    12.000000000000
         C            1.813144959681     1.558667932206    -1.092361053038    12.000000000000
         C            2.343781959681     0.275613932206    -0.894578053038    12.000000000000
         C            1.531206959681    -0.749543067794    -0.411731053038    12.000000000000
         C            0.185550959681    -0.507536067794    -0.137604053038    12.000000000000
         S            4.072849959681     0.004971932206    -1.226943053038    31.972071174400
         C            4.645327959681    -0.657594067794     0.366791946962    12.000000000000
         O           -2.639211040319    -2.440715067794     0.881351946962    15.994914619570
         O           -2.394299040319     1.996323932206    -0.466826053038    15.994914619570
         H            2.458328959681     2.359862932206    -1.436788053038     1.007825032230
         H            0.035020959681     2.772497932206    -0.998218053038     1.007825032230
         H           -0.249373040319    -2.502920067794     0.280867946962     1.007825032230
         H            1.935152959681    -1.749041067794    -0.274644053038     1.007825032230
         H            4.566833959681     0.096907932206     1.152546946962     1.007825032230
         H            4.106861959681    -1.563082067794     0.653899946962     1.007825032230
         H            5.698911959681    -0.912675067794     0.225399946962     1.007825032230

  Running in c1 symmetry.

  Rotational constants: A =      0.03589  B =      0.00880  C =      0.00761 [cm^-1]
  Rotational constants: A =   1076.06847  B =    263.92902  C =    228.27713 [MHz]
  Nuclear repulsion = 1194.990214306223606

  Charge       = 0
  Multiplicity = 1
  Electrons    = 124
  Nalpha       = 62
  Nbeta        = 62

  ==> Algorithm <==

  SCF Algorithm Type is DF.
  DIIS enabled.
  MOM disabled.
  Fractional occupation disabled.
  Guess Type is SAD.
  Energy threshold   = 1.00e-06
  Density threshold  = 1.00e-06
  Integral threshold = 0.00e+00

  ==> Primary Basis <==

  Basis Set: 6-311++G**
    Blend: 6-311++G**
    Number of shells: 199
    Number of basis function: 409
    Number of Cartesian functions: 425
    Spherical Harmonics?: true
    Max angular momentum: 2

  ==> DFT Potential <==

   => Composite Functional: WB97X-D <= 

    wB97X-D Hyb-GGA Exchange-Correlation Functional

    J.-D. Chai and M. Head-Gordon, Phys. Chem. Chem. Phys. 10, 6615 (2008)

    Deriv               =              1
    GGA                 =           TRUE
    Meta                =          FALSE

    Exchange Hybrid     =           TRUE
    MP2 Hybrid          =          FALSE

   => Exchange-Correlation Functionals <=

    1.0000   wB97D range-separated functional

   => Exact (HF) Exchange <=

    0.7780            HF,LR [omega = 0.2000]
    0.2220               HF 

   => Molecular Quadrature <=

    Radial Scheme          =       TREUTLER
    Pruning Scheme         =           FLAT
    Nuclear Scheme         =       TREUTLER

    BS radius alpha        =              1
    Pruning alpha          =              1
    Radial Points          =             75
    Spherical Points       =            302
    Total Points           =         520865
    Total Blocks           =           3872
    Max Points             =            256
    Max Functions          =            319

   => WB97X-D: Empirical Dispersion <=

    Chai and Head-Gordon Dispersion Correction
    Chai, J.-D.; Head-Gordon, M. (2010), J. Chem. Phys., 132: 6615-6620

        s6 =       1.000000

   => Loading Basis Set <=

    Name: (6-311++G** AUX)
    Role: JKFIT
    Keyword: DF_BASIS_SCF
    atoms 1             entry N          line   224 file /fsx/users/francis/anaconda3/envs/poltype-dev/share/psi4/basis/aug-cc-pvtz-jkfit.gbs 
    atoms 2-3, 6-12, 14 entry C          line   162 file /fsx/users/francis/anaconda3/envs/poltype-dev/share/psi4/basis/aug-cc-pvtz-jkfit.gbs 
    atoms 4-5           entry F          line   348 file /fsx/users/francis/anaconda3/envs/poltype-dev/share/psi4/basis/aug-cc-pvtz-jkfit.gbs 
    atoms 13            entry S          line   730 file /fsx/users/francis/anaconda3/envs/poltype-dev/share/psi4/basis/aug-cc-pvtz-jkfit.gbs 
    atoms 15-16         entry O          line   286 file /fsx/users/francis/anaconda3/envs/poltype-dev/share/psi4/basis/aug-cc-pvtz-jkfit.gbs 
    atoms 17-23         entry H          line    70 file /fsx/users/francis/anaconda3/envs/poltype-dev/share/psi4/basis/aug-cc-pvtz-jkfit.gbs 

  ==> Pre-Iterations <==

   -------------------------------------------------------
    Irrep   Nso     Nmo     Nalpha   Nbeta   Ndocc  Nsocc
   -------------------------------------------------------
     A        409     409       0       0       0       0
   -------------------------------------------------------
    Total     409     409      62      62      62       0
   -------------------------------------------------------

  ==> Integral Setup <==

  ==> DiskDFJK: Density-Fitted J/K Matrices <==

    J tasked:                  Yes
    K tasked:                  Yes
    wK tasked:                 Yes
    Omega:               2.000E-01
    OpenMP threads:              8
    Integrals threads:           8
    Memory [MiB]:             7925
    Algorithm:                Core
    Integral Cache:           NONE
    Schwarz Cutoff:          1E-12
    Fitting Condition:       1E-10

   => Auxiliary Basis Set <=

  Basis Set: (6-311++G** AUX)
    Blend: AUG-CC-PVTZ-JKFIT
    Number of shells: 590
    Number of basis function: 2028
    Number of Cartesian functions: 2530
    Spherical Harmonics?: true
    Max angular momentum: 4

  Cached 100.0% of DFT collocation blocks in 3.437 [GiB].

  Minimum eigenvalue in the overlap matrix is 2.6889529890E-07.
  Using Symmetric Orthogonalization.

  SCF Guess: Superposition of Atomic Densities via on-the-fly atomic UHF.

  ==> Iterations <==

                           Total Energy        Delta E     RMS |[F,P]|

   @DF-RKS iter SAD: -1187.86914715317448   -1.18787e+03   0.00000e+00 
   @DF-RKS iter   1: -1187.76334960843246    1.05798e-01   2.83237e-03 DIIS
   @DF-RKS iter   2: -1187.82130051090007   -5.79509e-02   2.85987e-03 DIIS
   @DF-RKS iter   3: -1188.30169133571462   -4.80391e-01   6.83013e-04 DIIS
   @DF-RKS iter   4: -1188.32865137711610   -2.69600e-02   2.03789e-04 DIIS
   @DF-RKS iter   5: -1188.33162315933828   -2.97178e-03   5.59353e-05 DIIS
   @DF-RKS iter   6: -1188.33195182518944   -3.28666e-04   1.85950e-05 DIIS
   @DF-RKS iter   7: -1188.33199819041010   -4.63652e-05   7.19787e-06 DIIS
   @DF-RKS iter   8: -1188.33201266188871   -1.44715e-05   2.80400e-06 DIIS
   @DF-RKS iter   9: -1188.33201584732092   -3.18543e-06   1.35418e-06 DIIS
   @DF-RKS iter  10: -1188.33201617687496   -3.29554e-07   5.94338e-07 DIIS
  Energy and wave function converged.


  ==> Post-Iterations <==

    Orbital Energies [Eh]
    ---------------------

    Doubly Occupied:                                                      

       1A    -89.042260     2A    -24.845274     3A    -24.844423  
       4A    -19.278525     5A    -19.266014     6A    -14.518850  
       7A    -10.488625     8A    -10.440471     9A    -10.417523  
      10A    -10.392845    11A    -10.365687    12A    -10.337641  
      13A    -10.335275    14A    -10.335048    15A    -10.334880  
      16A    -10.324039    17A     -8.082809    18A     -6.032385  
      19A     -6.028267    20A     -6.021478    21A     -1.395378  
      22A     -1.333433    23A     -1.196880    24A     -1.188454  
      25A     -1.101338    26A     -1.005872    27A     -0.941286  
      28A     -0.906860    29A     -0.891305    30A     -0.867490  
      31A     -0.793863    32A     -0.771037    33A     -0.757900  
      34A     -0.742112    35A     -0.700553    36A     -0.683236  
      37A     -0.675002    38A     -0.648843    39A     -0.632213  
      40A     -0.595366    41A     -0.585224    42A     -0.574853  
      43A     -0.566170    44A     -0.563347    45A     -0.559259  
      46A     -0.551903    47A     -0.542006    48A     -0.536344  
      49A     -0.527625    50A     -0.520053    51A     -0.516122  
      52A     -0.503453    53A     -0.496573    54A     -0.482299  
      55A     -0.475035    56A     -0.444805    57A     -0.427762  
      58A     -0.399823    59A     -0.382524    60A     -0.369794  
      61A     -0.343521    62A     -0.326603  

    Virtual:                                                              

      63A     -0.048165    64A      0.008823    65A      0.025491  
      66A      0.040309    67A      0.041289    68A      0.049596  
      69A      0.058659    70A      0.064698    71A      0.069088  
      72A      0.069975    73A      0.079445    74A      0.089087  
      75A      0.091228    76A      0.098342    77A      0.103587  
      78A      0.107779    79A      0.111189    80A      0.120799  
      81A      0.123124    82A      0.128551    83A      0.134054  
      84A      0.138336    85A      0.140856    86A      0.145480  
      87A      0.150015    88A      0.153904    89A      0.160017  
      90A      0.160551    91A      0.165070    92A      0.173091  
      93A      0.176758    94A      0.180711    95A      0.184671  
      96A      0.185382    97A      0.189012    98A      0.191588  
      99A      0.195340   100A      0.201415   101A      0.206159  
     102A      0.209645   103A      0.213148   104A      0.216192  
     105A      0.218595   106A      0.227683   107A      0.232940  
     108A      0.237613   109A      0.240200   110A      0.246749  
     111A      0.251209   112A      0.257141   113A      0.259039  
     114A      0.264451   115A      0.267345   116A      0.269391  
     117A      0.272421   118A      0.282317   119A      0.286202  
     120A      0.289999   121A      0.293108   122A      0.296228  
     123A      0.301966   124A      0.305073   125A      0.310570  
     126A      0.315671   127A      0.320165   128A      0.325718  
     129A      0.331324   130A      0.338969   131A      0.342378  
     132A      0.344965   133A      0.355540   134A      0.356626  
     135A      0.364764   136A      0.367104   137A      0.372670  
     138A      0.376557   139A      0.384792   140A      0.390016  
     141A      0.392144   142A      0.395273   143A      0.401073  
     144A      0.415551   145A      0.419728   146A      0.422820  
     147A      0.437845   148A      0.441527   149A      0.447428  
     150A      0.457096   151A      0.458678   152A      0.466834  
     153A      0.475394   154A      0.483291   155A      0.490611  
     156A      0.494674   157A      0.501530   158A      0.514479  
     159A      0.523055   160A      0.534981   161A      0.550401  
     162A      0.555779   163A      0.565479   164A      0.567535  
     165A      0.582598   166A      0.592970   167A      0.606535  
     168A      0.622267   169A      0.626497   170A      0.637443  
     171A      0.638132   172A      0.647184   173A      0.663469  
     174A      0.673265   175A      0.684473   176A      0.690149  
     177A      0.698102   178A      0.719528   179A      0.723622  
     180A      0.734664   181A      0.742193   182A      0.743545  
     183A      0.749309   184A      0.755112   185A      0.758944  
     186A      0.764926   187A      0.782363   188A      0.790495  
     189A      0.796930   190A      0.807177   191A      0.812911  
     192A      0.824425   193A      0.830753   194A      0.834493  
     195A      0.857779   196A      0.867632   197A      0.887226  
     198A      0.900254   199A      0.912412   200A      0.918723  
     201A      0.929806   202A      0.944286   203A      0.951833  
     204A      0.954716   205A      0.969945   206A      0.979726  
     207A      0.988936   208A      1.002639   209A      1.016112  
     210A      1.027423   211A      1.030110   212A      1.041609  
     213A      1.066511   214A      1.073185   215A      1.089246  
     216A      1.101226   217A      1.118556   218A      1.123262  
     219A      1.151291   220A      1.173439   221A      1.178704  
     222A      1.190841   223A      1.202893   224A      1.209544  
     225A      1.218107   226A      1.235987   227A      1.255616  
     228A      1.269950   229A      1.274305   230A      1.282288  
     231A      1.292420   232A      1.331404   233A      1.336942  
     234A      1.339951   235A      1.355119   236A      1.378252  
     237A      1.389536   238A      1.431960   239A      1.483086  
     240A      1.501981   241A      1.515359   242A      1.527675  
     243A      1.540583   244A      1.548652   245A      1.555749  
     246A      1.566718   247A      1.572375   248A      1.591021  
     249A      1.599163   250A      1.606705   251A      1.615670  
     252A      1.621350   253A      1.637591   254A      1.650332  
     255A      1.661045   256A      1.669104   257A      1.685294  
     258A      1.687805   259A      1.714914   260A      1.728779  
     261A      1.735667   262A      1.757954   263A      1.763465  
     264A      1.769626   265A      1.785353   266A      1.799672  
     267A      1.817085   268A      1.826126   269A      1.829293  
     270A      1.849911   271A      1.867143   272A      1.874303  
     273A      1.915341   274A      1.928222   275A      1.944603  
     276A      1.961345   277A      1.978688   278A      1.982454  
     279A      1.997196   280A      2.014412   281A      2.015741  
     282A      2.037722   283A      2.051579   284A      2.071381  
     285A      2.073290   286A      2.098937   287A      2.106743  
     288A      2.125246   289A      2.134185   290A      2.161933  
     291A      2.178021   292A      2.184711   293A      2.234942  
     294A      2.243935   295A      2.278305   296A      2.284694  
     297A      2.301177   298A      2.321754   299A      2.337000  
     300A      2.348144   301A      2.422269   302A      2.484362  
     303A      2.501018   304A      2.524627   305A      2.529044  
     306A      2.552660   307A      2.589801   308A      2.610343  
     309A      2.615031   310A      2.642222   311A      2.649050  
     312A      2.685083   313A      2.753363   314A      2.756892  
     315A      2.785366   316A      2.801174   317A      2.808714  
     318A      2.817660   319A      2.826321   320A      2.845751  
     321A      2.851009   322A      2.894560   323A      2.898078  
     324A      2.904051   325A      2.927609   326A      2.946470  
     327A      2.967072   328A      2.974119   329A      2.987865  
     330A      3.025561   331A      3.041103   332A      3.047135  
     333A      3.076304   334A      3.081120   335A      3.102269  
     336A      3.146151   337A      3.168882   338A      3.209176  
     339A      3.276808   340A      3.290877   341A      3.301807  
     342A      3.366125   343A      3.410749   344A      3.427146  
     345A      3.434930   346A      3.478326   347A      3.524775  
     348A      3.551823   349A      3.587937   350A      3.627786  
     351A      3.642241   352A      3.682803   353A      3.697973  
     354A      3.754663   355A      3.803094   356A      3.816427  
     357A      3.842370   358A      3.854398   359A      3.868869  
     360A      3.890747   361A      3.931413   362A      3.943913  
     363A      3.963468   364A      3.996456   365A      4.020649  
     366A      4.079866   367A      4.154572   368A      4.175145  
     369A      4.241508   370A      4.266533   371A      4.340948  
     372A      4.484806   373A      4.819515   374A      4.884451  
     375A      4.915155   376A      5.045235   377A      5.164071  
     378A      5.169253   379A      5.172792   380A      5.302748  
     381A      5.315535   382A      5.821431   383A      5.870219  
     384A      6.481976   385A      6.502879   386A      6.520630  
     387A      6.529991   388A      6.651677   389A      6.906445  
     390A      8.093239   391A     17.494479   392A     17.584415  
     393A     17.639873   394A     23.628723   395A     23.746367  
     396A     23.964277   397A     23.998300   398A     24.017372  
     399A     24.029897   400A     24.037303   401A     24.133897  
     402A     24.185049   403A     24.274078   404A     35.748183  
     405A     50.124778   406A     50.141437   407A     66.916917  
     408A     66.957211   409A    189.353953  

    Final Occupation by Irrep:
              A 
    DOCC [    62 ]

  @DF-RKS Final Energy: -1188.33201617687496

   => Energetics <=

    Nuclear Repulsion Energy =           1194.9902143062236064
    One-Electron Energy =               -4004.8635644263767972
    Two-Electron Energy =                1711.2875544653256839
    DFT Exchange-Correlation Energy =     -89.7323609179126436
    Empirical Dispersion Energy =          -0.0138596041347823
    VV10 Nonlocal Energy =                  0.0000000000000000
    Total Energy =                      -1188.3320161768749585

Computation Completed


Properties will be evaluated at   0.000000,   0.000000,   0.000000 [a0]

Properties computed using the SCF density matrix

  Nuclear Dipole Moment: [e a0]
     X:    23.0899      Y:    -1.7153      Z:    -3.0156

  Electronic Dipole Moment: [e a0]
     X:   -20.5055      Y:     1.2761      Z:     2.8880

  Dipole Moment: [e a0]
     X:     2.5844      Y:    -0.4393      Z:    -0.1276     Total:     2.6245

  Dipole Moment: [D]
     X:     6.5688      Y:    -1.1165      Z:    -0.3243     Total:     6.6709


*** tstop() called on cpu-spot-dy-c5n2xlarge-1 at Tue Jun 22 07:19:56 2021
Module time:
	user time   =     645.66 seconds =      10.76 minutes
	system time =      10.50 seconds =       0.17 minutes
	total time  =         89 seconds =       1.48 minutes
Total time:
	user time   =     645.66 seconds =      10.76 minutes
	system time =      10.50 seconds =       0.17 minutes
	total time  =         89 seconds =       1.48 minutes


Properties will be evaluated at   0.000000,   0.000000,   0.000000 [a0]
OEProp: No title given, name of density matrix used for the following properties is 'SCF density'


  Wiberg Bond Indices using Orthogonal Lowdin Orbitals:

  Irrep: 1 Size: 23 x 23

                 1                   2                   3                   4                   5

    1     0.00000000000000     1.31359264909924     0.10296343387772     0.01069066829832     0.02411546953012
    2     1.31359264909924     0.00000000000000     0.88365517387402     0.10625803070722     0.11211052717272
    3     0.10296343387772     0.88365517387402     0.00000000000000     1.41135243492733     1.30613820000313
    4     0.01069066829832     0.10625803070722     1.41135243492733     0.00000000000000     0.13728552577917
    5     0.02411546953012     0.11211052717272     1.30613820000313     0.13728552577917     0.00000000000000
    6     0.03540264183866     0.07731715129074     0.89836128490438     0.10348965938940     0.11356268464630
    7     0.11816364128101     0.03682381536930     0.10155670280454     0.01178635697833     0.02334073791311
    8     0.01516044866167     0.00390780683997     0.01417021698595     0.00207243822674     0.00350945933398
    9     0.01513900898712     0.00563678982301     0.00254477387239     0.00043669863584     0.00059357836246
   10     0.01688608248425     0.00299623305030     0.00161137013787     0.00024805961684     0.00139030745559
   11     0.13199824515534     0.02568382154120     0.00454747841186     0.00042167172603     0.00124984110378
   12     1.18275180394749     0.09756577898253     0.03357029882780     0.00379768816755     0.01289654670090
   13     0.00275839740747     0.00088239950131     0.00045396537187     0.00006795376245     0.00031507412507
   14     0.00056275794189     0.00012706452839     0.00009296791826     0.00001594466076     0.00008932517215
   15     0.24430337923912     2.29969026180865     0.15053053961444     0.04355300992533     0.02749112939151
   16     0.00455468864665     0.01815887762637     0.15824181030198     0.04569838406821     0.03088917305422
   17     0.00073173673037     0.00023914000969     0.00051029174991     0.00009365870498     0.00005026212279
   18     0.00127907638962     0.00049023805229     0.00208545980728     0.00040704801547     0.00035595933659
   19     0.91482073683010     0.07265600496585     0.01394277307595     0.00207999978237     0.00155158362313
   20     0.02285736446090     0.00223418968414     0.00074406364603     0.00012624229055     0.00010241280002
   21     0.00004136597809     0.00001293165178     0.00001487385246     0.00000276132640     0.00000935586671
   22     0.00022766483748     0.00004861159688     0.00002937562330     0.00000549510300     0.00001474031215
   23     0.00006104030544     0.00001782685497     0.00001006964296     0.00000147137488     0.00001008387186

                 6                   7                   8                   9                  10

    1     0.03540264183866     0.11816364128101     0.01516044866167     0.01513900898712     0.01688608248425
    2     0.07731715129074     0.03682381536930     0.00390780683997     0.00563678982301     0.00299623305030
    3     0.89836128490438     0.10155670280454     0.01417021698595     0.00254477387239     0.00161137013787
    4     0.10348965938940     0.01178635697833     0.00207243822674     0.00043669863584     0.00024805961684
    5     0.11356268464630     0.02334073791311     0.00350945933398     0.00059357836246     0.00139030745559
    6     0.00000000000000     1.04526392077025     0.11931525948885     0.01849055913649     0.01505882533818
    7     1.04526392077025     0.00000000000000     1.35288969009951     0.13106885568866     0.11416264878922
    8     0.11931525948885     1.35288969009951     0.00000000000000     1.49384499787018     0.13659814776648
    9     0.01849055913649     0.13106885568866     1.49384499787018     0.00000000000000     1.40548702037697
   10     0.01505882533818     0.11416264878922     0.13659814776648     1.40548702037697     0.00000000000000
   11     0.01518385941016     0.12008329869354     0.12583199835032     0.12955206623797     1.43308147732236
   12     0.11422167591560     1.28563211060458     0.12402518896080     0.11413605807557     0.13079220521907
   13     0.00316406513016     0.01406170836353     0.02243233094511     0.16473641602014     1.26870599668399
   14     0.00074910865498     0.00440455807321     0.00305370374100     0.02324298760058     0.08559780642339
   15     0.01723883785373     0.00934518454336     0.00117661235825     0.00480390241350     0.00185762566200
   16     2.33685329744643     0.16026943347284     0.07130956036184     0.00531150434580     0.01576410668382
   17     0.00149199858587     0.01275269027866     0.08256865760346     0.86529502382459     0.07678459982986
   18     0.02020057091700     0.07751697021219     0.85416707355579     0.08036053382385     0.01228357062219
   19     0.00274160782516     0.01277783213644     0.00169714683244     0.00141558655729     0.00189216318737
   20     0.00170334523962     0.01130811915007     0.00561103890429     0.01202579495426     0.07442357472819
   21     0.00009866929249     0.00048302223511     0.00037560215141     0.00329752889696     0.01524547450585
   22     0.00013860986961     0.00061914351277     0.00044452505256     0.00283014677863     0.01486186021265
   23     0.00006453631193     0.00039962717916     0.00041800686161     0.00209628447310     0.01286375632302

                11                  12                  13                  14                  15

    1     0.13199824515534     1.18275180394749     0.00275839740747     0.00056275794189     0.24430337923912
    2     0.02568382154120     0.09756577898253     0.00088239950131     0.00012706452839     2.29969026180865
    3     0.00454747841186     0.03357029882780     0.00045396537187     0.00009296791826     0.15053053961444
    4     0.00042167172603     0.00379768816755     0.00006795376245     0.00001594466076     0.04355300992533
    5     0.00124984110378     0.01289654670090     0.00031507412507     0.00008932517215     0.02749112939151
    6     0.01518385941016     0.11422167591560     0.00316406513016     0.00074910865498     0.01723883785373
    7     0.12008329869354     1.28563211060458     0.01406170836353     0.00440455807321     0.00934518454336
    8     0.12583199835032     0.12402518896080     0.02243233094511     0.00305370374100     0.00117661235825
    9     0.12955206623797     0.11413605807557     0.16473641602014     0.02324298760058     0.00480390241350
   10     1.43308147732236     0.13079220521907     1.26870599668399     0.08559780642339     0.00185762566200
   11     0.00000000000000     1.37720583183108     0.15234014239302     0.04376130924045     0.01143573637114
   12     1.37720583183108     0.00000000000000     0.02229610226648     0.00432241840400     0.03019979625174
   13     0.15234014239302     0.02229610226648     0.00000000000000     1.24348760652549     0.00044890228199
   14     0.04376130924045     0.00432241840400     1.24348760652549     0.00000000000000     0.00007027295676
   15     0.01143573637114     0.03019979625174     0.00044890228199     0.00007027295676     0.00000000000000
   16     0.00434816991388     0.04098431178250     0.00309960694923     0.00091730668947     0.00716897973614
   17     0.01277735048909     0.00549065367570     0.03124341494845     0.00245676028111     0.00017071322506
   18     0.00542416323883     0.01190472842663     0.00203527562908     0.00035598254707     0.00018678675852
   19     0.01998076067572     0.06514701059719     0.00035841448275     0.00014489636595     0.02771950831983
   20     0.84730084043488     0.07721154654051     0.02370733288654     0.01309861633841     0.00063281035160
   21     0.00604663773050     0.00041964807310     0.06641692913404     0.94393448383926     0.00000635784646
   22     0.01485551174308     0.00164731927128     0.06632028106493     0.94082445718836     0.00003226796999
   23     0.00287165411828     0.00040080065983     0.07164533194838     0.94547170850905     0.00001592068870

                16                  17                  18                  19                  20

    1     0.00455468864665     0.00073173673037     0.00127907638962     0.91482073683010     0.02285736446090
    2     0.01815887762637     0.00023914000969     0.00049023805229     0.07265600496585     0.00223418968414
    3     0.15824181030198     0.00051029174991     0.00208545980728     0.01394277307595     0.00074406364603
    4     0.04569838406821     0.00009365870498     0.00040704801547     0.00207999978237     0.00012624229055
    5     0.03088917305422     0.00005026212279     0.00035595933659     0.00155158362313     0.00010241280002
    6     2.33685329744643     0.00149199858587     0.02020057091700     0.00274160782516     0.00170334523962
    7     0.16026943347284     0.01275269027866     0.07751697021219     0.01277783213644     0.01130811915007
    8     0.07130956036184     0.08256865760346     0.85416707355579     0.00169714683244     0.00561103890429
    9     0.00531150434580     0.86529502382459     0.08036053382385     0.00141558655729     0.01202579495426
   10     0.01576410668382     0.07678459982986     0.01228357062219     0.00189216318737     0.07442357472819
   11     0.00434816991388     0.01277735048909     0.00542416323883     0.01998076067572     0.84730084043488
   12     0.04098431178250     0.00549065367570     0.01190472842663     0.06514701059719     0.07721154654051
   13     0.00309960694923     0.03124341494845     0.00203527562908     0.00035841448275     0.02370733288654
   14     0.00091730668947     0.00245676028111     0.00035598254707     0.00014489636595     0.01309861633841
   15     0.00716897973614     0.00017071322506     0.00018678675852     0.02771950831983     0.00063281035160
   16     0.00000000000000     0.00034306428706     0.01873006730128     0.00049238589762     0.00057830297054
   17     0.00034306428706     0.00000000000000     0.00996689234207     0.00011356840464     0.00117041927774
   18     0.01873006730128     0.00996689234207     0.00000000000000     0.00059642820413     0.00046227772591
   19     0.00049238589762     0.00011356840464     0.00059642820413     0.00000000000000     0.00623012923958
   20     0.00057830297054     0.00117041927774     0.00046227772591     0.00623012923958     0.00000000000000
   21     0.00010551630007     0.00037716230421     0.00004900346654     0.00001393178628     0.00119909044236
   22     0.00012742331896     0.00043841418329     0.00006455332031     0.00006075028776     0.00611526877620
   23     0.00008781513026     0.00019928252139     0.00006257446033     0.00001210699994     0.00070237551511

                21                  22                  23

    1     0.00004136597809     0.00022766483748     0.00006104030544
    2     0.00001293165178     0.00004861159688     0.00001782685497
    3     0.00001487385246     0.00002937562330     0.00001006964296
    4     0.00000276132640     0.00000549510300     0.00000147137488
    5     0.00000935586671     0.00001474031215     0.00001008387186
    6     0.00009866929249     0.00013860986961     0.00006453631193
    7     0.00048302223511     0.00061914351277     0.00039962717916
    8     0.00037560215141     0.00044452505256     0.00041800686161
    9     0.00329752889696     0.00283014677863     0.00209628447310
   10     0.01524547450585     0.01486186021265     0.01286375632302
   11     0.00604663773050     0.01485551174308     0.00287165411828
   12     0.00041964807310     0.00164731927128     0.00040080065983
   13     0.06641692913404     0.06632028106493     0.07164533194838
   14     0.94393448383926     0.94082445718836     0.94547170850905
   15     0.00000635784646     0.00003226796999     0.00001592068870
   16     0.00010551630007     0.00012742331896     0.00008781513026
   17     0.00037716230421     0.00043841418329     0.00019928252139
   18     0.00004900346654     0.00006455332031     0.00006257446033
   19     0.00001393178628     0.00006075028776     0.00001210699994
   20     0.00119909044236     0.00611526877620     0.00070237551511
   21     0.00000000000000     0.03880075325474     0.04149471018521
   22     0.03880075325474     0.00000000000000     0.04182058387697
   23     0.04149471018521     0.04182058387697     0.00000000000000



  Atomic Valences: 

 #  #
 Irrep: 1
      1:  4.1590623
      2:  5.0601053
      3:  5.0871276
      4:  1.8798912
      5:  1.7970720
      6:  4.9401122
      7:  4.6447101
      8:  4.4345799
      9:  4.4823461
     10:  4.8385929
     11:  4.4859819
     12:  4.7366195
     13:  3.1609776
     14:  4.2567820
     15:  2.8780785
     16:  2.9240338
     17:  1.1052658
     18:  1.0989852
     19:  1.1464453
     20:  1.1095452
     21:  1.1184458
     22:  1.1303278
     23:  1.1207276


    Psi4 stopped on: Tuesday, 22 June 2021 07:19AM
    Psi4 wall time for execution: 0:01:29.19

*** Psi4 exiting successfully. Buy a developer a beer!
