
    -----------------------------------------------------------------------
          Psi4: An Open-Source Ab Initio Electronic Structure Package
                               Psi4 1.3.2 release

                         Git: Rev {HEAD} ecbda83 


    R. M. Parrish, L. A. Burns, D. G. A. Smith, A. C. Simmonett,
    A. E. DePrince III, E. G. Hohenstein, U. Bozkaya, A. Yu. Sokolov,
    R. Di Remigio, R. M. Richard, J. F. Gonthier, A. M. James,
    H. R. McAlexander, A. Kumar, M. Saitow, X. Wang, B. P. Pritchard,
    P. Verma, H. F. Schaefer III, K. Patkowski, R. A. King, E. F. Valeev,
    F. A. Evangelista, J. M. Turney, T. D. Crawford, and C. D. Sherrill,
    J. Chem. Theory Comput. 13(7) pp 3185--3197 (2017).
    (doi: 10.1021/acs.jctc.7b00174)


                         Additional Contributions by
    P. Kraus, H. Kruse, M. H. Lechner, M. C. Schieber, R. A. Shaw,
    A. Alenaizan, R. Galvelis, Z. L. Glick, S. Lehtola, and J. P. Misiewicz

    -----------------------------------------------------------------------


    Psi4 started on: Monday, 21 June 2021 11:02PM

    Process ID: 18056
    Host:       cpu-spot-dy-c5n2xlarge-1
    PSIDATADIR: /fsx/users/francis/anaconda3/envs/poltype-dev/share/psi4
    Memory:     500.0 MiB
    Threads:    1
    
  ==> Input File <==

--------------------------------------------------------------------------
molecule { 
0 1
 N   -0.709744   -1.398506    0.243066
 C   -1.984032   -1.204463    0.707704
 C   -2.497585    0.273697    0.704966
 F   -3.652094    0.309145   -0.044800
 F   -2.816346    0.602697    2.003497
 C   -1.526170    1.373755    0.152610
 C   -0.184181    0.940509   -0.299516
 C    0.736987    1.891381   -0.793208
 C    2.009894    1.502592   -1.228291
 C    2.393741    0.137629   -1.182380
 C    1.478285   -0.813318   -0.680943
 C    0.198446   -0.428720   -0.244545
 S    3.985122   -0.458564   -1.675215
 C    4.927210   -0.498585   -0.128883
 O   -2.651244   -2.152342    1.096556
 O   -1.876438    2.549348    0.109526
 H    2.691484    2.268954   -1.596327
 H    0.431279    2.937677   -0.826783
 H   -0.436911   -2.371519    0.270395
 H    1.768122   -1.863817   -0.632666
 H    5.058420    0.523251    0.240339
 H    4.388273   -1.093470    0.614978
 H    5.905517   -0.949394   -0.321044
}
set optking { 
  frozen_dihedral = ("
    11 10 13 14
    9 10 13 14
    21 14 13 10
  ")
}
set {
  geom_maxiter 400
  g_convergence GAU_LOOSE
  dynamic_level 1
}
memory 16GB
set_num_threads(8)
psi4_io.set_default_path("/scratch/Psi4-ligand")
for _ in range(1):
  try:
    set opt_coordinates both
    optimize('wb97x-d/6-31+G*')
    break
  except OptimizationConvergenceError:
    break
  else:
    try:
      set opt_coordinates cartesian
      optimize('wb97x-d/6-31+G*')
      break
    except OptimizationConvergenceError:
      pass
clean()
--------------------------------------------------------------------------

  Memory set to  14.901 GiB by Python driver.
  Threads set to 8 by Python driver.
gradient() will perform analytic gradient computation.

*** tstart() called on cpu-spot-dy-c5n2xlarge-1
*** at Mon Jun 21 23:02:42 2021

   => Loading Basis Set <=

    Name: 6-31+G*
    Role: ORBITAL
    Keyword: BASIS
    atoms 1             entry N          line   138 file /fsx/users/francis/anaconda3/envs/poltype-dev/share/psi4/basis/6-31pgs.gbs 
    atoms 2-3, 6-12, 14 entry C          line   119 file /fsx/users/francis/anaconda3/envs/poltype-dev/share/psi4/basis/6-31pgs.gbs 
    atoms 4-5           entry F          line   176 file /fsx/users/francis/anaconda3/envs/poltype-dev/share/psi4/basis/6-31pgs.gbs 
    atoms 13            entry S          line   344 file /fsx/users/francis/anaconda3/envs/poltype-dev/share/psi4/basis/6-31pgs.gbs 
    atoms 15-16         entry O          line   157 file /fsx/users/francis/anaconda3/envs/poltype-dev/share/psi4/basis/6-31pgs.gbs 
    atoms 17-23         entry H          line    46 file /fsx/users/francis/anaconda3/envs/poltype-dev/share/psi4/basis/6-31pgs.gbs 


         ---------------------------------------------------------
                                   SCF
               by Justin Turney, Rob Parrish, Andy Simmonett
                          and Daniel G. A. Smith
                              RKS Reference
                        8 Threads,  15258 MiB Core
         ---------------------------------------------------------

  ==> Geometry <==

    Molecular point group: c1
    Full point group: C1

    Geometry (in Angstrom), charge = 0, multiplicity = 1:

       Center              X                  Y                   Z               Mass       
    ------------   -----------------  -----------------  -----------------  -----------------
         N           -0.745776098682    -1.509486547959     0.374051656505    14.003074004430
         C           -2.020064098682    -1.315443547959     0.838689656505    12.000000000000
         C           -2.533617098682     0.162716452041     0.835951656505    12.000000000000
         F           -3.688126098682     0.198164452041     0.086185656505    18.998403162730
         F           -2.852378098682     0.491716452041     2.134482656505    18.998403162730
         C           -1.562202098682     1.262774452041     0.283595656505    12.000000000000
         C           -0.220213098682     0.829528452041    -0.168530343495    12.000000000000
         C            0.700954901318     1.780400452041    -0.662222343495    12.000000000000
         C            1.973861901318     1.391611452041    -1.097305343495    12.000000000000
         C            2.357708901318     0.026648452041    -1.051394343495    12.000000000000
         C            1.442252901318    -0.924298547959    -0.549957343495    12.000000000000
         C            0.162413901318    -0.539700547959    -0.113559343495    12.000000000000
         S            3.949089901318    -0.569544547959    -1.544229343495    31.972071174400
         C            4.891177901318    -0.609565547959     0.002102656505    12.000000000000
         O           -2.687276098682    -2.263322547959     1.227541656505    15.994914619570
         O           -1.912470098682     2.438367452041     0.240511656505    15.994914619570
         H            2.655451901318     2.157973452041    -1.465341343495     1.007825032230
         H            0.395246901318     2.826696452041    -0.695797343495     1.007825032230
         H           -0.472943098682    -2.482499547959     0.401380656505     1.007825032230
         H            1.732089901318    -1.974797547959    -0.501680343495     1.007825032230
         H            5.022387901318     0.412270452041     0.371324656505     1.007825032230
         H            4.352240901318    -1.204450547959     0.745963656505     1.007825032230
         H            5.869484901318    -1.060374547959    -0.190058343495     1.007825032230

  Running in c1 symmetry.

  Rotational constants: A =      0.03568  B =      0.00838  C =      0.00729 [cm^-1]
  Rotational constants: A =   1069.78529  B =    251.30502  C =    218.60546 [MHz]
  Nuclear repulsion = 1178.295324628687922

  Charge       = 0
  Multiplicity = 1
  Electrons    = 124
  Nalpha       = 62
  Nbeta        = 62

  ==> Algorithm <==

  SCF Algorithm Type is DF.
  DIIS enabled.
  MOM disabled.
  Fractional occupation disabled.
  Guess Type is SAD.
  Energy threshold   = 1.00e-08
  Density threshold  = 1.00e-08
  Integral threshold = 0.00e+00

  ==> Primary Basis <==

  Basis Set: 6-31+G*
    Blend: 6-31+G*
    Number of shells: 144
    Number of basis function: 322
    Number of Cartesian functions: 322
    Spherical Harmonics?: false
    Max angular momentum: 2

  ==> DFT Potential <==

   => Composite Functional: WB97X-D <= 

    wB97X-D Hyb-GGA Exchange-Correlation Functional

    J.-D. Chai and M. Head-Gordon, Phys. Chem. Chem. Phys. 10, 6615 (2008)

    Deriv               =              1
    GGA                 =           TRUE
    Meta                =          FALSE

    Exchange Hybrid     =           TRUE
    MP2 Hybrid          =          FALSE

   => Exchange-Correlation Functionals <=

    1.0000   wB97D range-separated functional

   => Exact (HF) Exchange <=

    0.7780            HF,LR [omega = 0.2000]
    0.2220               HF 

   => Molecular Quadrature <=

    Radial Scheme          =       TREUTLER
    Pruning Scheme         =           FLAT
    Nuclear Scheme         =       TREUTLER

    BS radius alpha        =              1
    Pruning alpha          =              1
    Radial Points          =             75
    Spherical Points       =            302
    Total Points           =         520860
    Total Blocks           =           3856
    Max Points             =            256
    Max Functions          =            284

   => WB97X-D: Empirical Dispersion <=

    Chai and Head-Gordon Dispersion Correction
    Chai, J.-D.; Head-Gordon, M. (2010), J. Chem. Phys., 132: 6615-6620

        s6 =       1.000000

   => Loading Basis Set <=

    Name: (6-31+G* AUX)
    Role: JKFIT
    Keyword: DF_BASIS_SCF
    atoms 1             entry N          line   252 file /fsx/users/francis/anaconda3/envs/poltype-dev/share/psi4/basis/heavy-aug-cc-pvdz-jkfit.gbs 
    atoms 2-3, 6-12, 14 entry C          line   194 file /fsx/users/francis/anaconda3/envs/poltype-dev/share/psi4/basis/heavy-aug-cc-pvdz-jkfit.gbs 
    atoms 4-5           entry F          line   368 file /fsx/users/francis/anaconda3/envs/poltype-dev/share/psi4/basis/heavy-aug-cc-pvdz-jkfit.gbs 
    atoms 13            entry S          line   730 file /fsx/users/francis/anaconda3/envs/poltype-dev/share/psi4/basis/heavy-aug-cc-pvdz-jkfit.gbs 
    atoms 15-16         entry O          line   310 file /fsx/users/francis/anaconda3/envs/poltype-dev/share/psi4/basis/heavy-aug-cc-pvdz-jkfit.gbs 
    atoms 17-23         entry H          line   116 file /fsx/users/francis/anaconda3/envs/poltype-dev/share/psi4/basis/heavy-aug-cc-pvdz-jkfit.gbs 

  ==> Pre-Iterations <==

   -------------------------------------------------------
    Irrep   Nso     Nmo     Nalpha   Nbeta   Ndocc  Nsocc
   -------------------------------------------------------
     A        322     322       0       0       0       0
   -------------------------------------------------------
    Total     322     322      62      62      62       0
   -------------------------------------------------------

  ==> Integral Setup <==

  ==> DiskDFJK: Density-Fitted J/K Matrices <==

    J tasked:                  Yes
    K tasked:                  Yes
    wK tasked:                 Yes
    Omega:               2.000E-01
    OpenMP threads:              8
    Integrals threads:           8
    Memory [MiB]:             8434
    Algorithm:                Core
    Integral Cache:           NONE
    Schwarz Cutoff:          1E-12
    Fitting Condition:       1E-10

   => Auxiliary Basis Set <=

  Basis Set: (6-31+G* AUX)
    Blend: HEAVY-AUG-CC-PVDZ-JKFIT
    Number of shells: 523
    Number of basis function: 1840
    Number of Cartesian functions: 1840
    Spherical Harmonics?: false
    Max angular momentum: 3

  Cached 100.0% of DFT collocation blocks in 2.940 [GiB].

  Minimum eigenvalue in the overlap matrix is 6.1869572535E-07.
  Using Symmetric Orthogonalization.

  SCF Guess: Superposition of Atomic Densities via on-the-fly atomic UHF.

  ==> Iterations <==

                           Total Energy        Delta E     RMS |[F,P]|

   @DF-RKS iter SAD: -1187.21047359855970   -1.18721e+03   0.00000e+00 
   @DF-RKS iter   1: -1187.62256283854481   -4.12089e-01   3.22681e-03 DIIS
   @DF-RKS iter   2: -1187.63008590728305   -7.52307e-03   3.52315e-03 DIIS
   @DF-RKS iter   3: -1188.08188737827118   -4.51801e-01   8.32751e-04 DIIS
   @DF-RKS iter   4: -1188.10990928253614   -2.80219e-02   2.01630e-04 DIIS
   @DF-RKS iter   5: -1188.11171540686200   -1.80612e-03   6.11919e-05 DIIS
   @DF-RKS iter   6: -1188.11191662126680   -2.01214e-04   2.00998e-05 DIIS
   @DF-RKS iter   7: -1188.11193861970264   -2.19984e-05   6.12976e-06 DIIS
   @DF-RKS iter   8: -1188.11194256840736   -3.94870e-06   2.24217e-06 DIIS
   @DF-RKS iter   9: -1188.11194331853153   -7.50124e-07   1.53766e-06 DIIS
   @DF-RKS iter  10: -1188.11194351323184   -1.94700e-07   4.65245e-07 DIIS
   @DF-RKS iter  11: -1188.11194354732197   -3.40901e-08   1.94251e-07 DIIS
   @DF-RKS iter  12: -1188.11194355244879   -5.12682e-09   8.97955e-08 DIIS
   @DF-RKS iter  13: -1188.11194355373163   -1.28284e-09   3.71132e-08 DIIS
   @DF-RKS iter  14: -1188.11194355386419   -1.32559e-10   1.72001e-08 DIIS
   @DF-RKS iter  15: -1188.11194355390148   -3.72893e-11   6.75280e-09 DIIS
  Energy and wave function converged.


  ==> Post-Iterations <==

    Orbital Energies [Eh]
    ---------------------

    Doubly Occupied:                                                      

       1A    -89.069501     2A    -24.878284     3A    -24.877417  
       4A    -19.313879     5A    -19.297436     6A    -14.546405  
       7A    -10.515575     8A    -10.462353     9A    -10.442789  
      10A    -10.414347    11A    -10.385039    12A    -10.363050  
      13A    -10.357637    14A    -10.357253    15A    -10.349694  
      16A    -10.348704    17A     -8.087018    18A     -6.037922  
      19A     -6.033646    20A     -6.026612    21A     -1.386193  
      22A     -1.329823    23A     -1.192706    24A     -1.182627  
      25A     -1.096074    26A     -1.001105    27A     -0.939372  
      28A     -0.904681    29A     -0.890027    30A     -0.867845  
      31A     -0.794099    32A     -0.768024    33A     -0.755167  
      34A     -0.741378    35A     -0.697213    36A     -0.681305  
      37A     -0.670447    38A     -0.646422    39A     -0.630645  
      40A     -0.592171    41A     -0.579846    42A     -0.568930  
      43A     -0.564498    44A     -0.559906    45A     -0.555931  
      46A     -0.553796    47A     -0.540301    48A     -0.535884  
      49A     -0.531349    50A     -0.520546    51A     -0.512007  
      52A     -0.503636    53A     -0.496237    54A     -0.481285  
      55A     -0.476396    56A     -0.442585    57A     -0.420252  
      58A     -0.400100    59A     -0.373860    60A     -0.368521  
      61A     -0.339866    62A     -0.334062  

    Virtual:                                                              

      63A     -0.056952    64A      0.007857    65A      0.038387  
      66A      0.043033    67A      0.058899    68A      0.059632  
      69A      0.062567    70A      0.071108    71A      0.076314  
      72A      0.090091    73A      0.092691    74A      0.095666  
      75A      0.105434    76A      0.112290    77A      0.113661  
      78A      0.116405    79A      0.122700    80A      0.130760  
      81A      0.137342    82A      0.139547    83A      0.141576  
      84A      0.147452    85A      0.154677    86A      0.160499  
      87A      0.166833    88A      0.172162    89A      0.174623  
      90A      0.178078    91A      0.183382    92A      0.185874  
      93A      0.194303    94A      0.197794    95A      0.203290  
      96A      0.205727    97A      0.209559    98A      0.217774  
      99A      0.220099   100A      0.228186   101A      0.230634  
     102A      0.233005   103A      0.239460   104A      0.242149  
     105A      0.247202   106A      0.250264   107A      0.255345  
     108A      0.260705   109A      0.261766   110A      0.272310  
     111A      0.274974   112A      0.282553   113A      0.286360  
     114A      0.290718   115A      0.296155   116A      0.298567  
     117A      0.304500   118A      0.312095   119A      0.315008  
     120A      0.317086   121A      0.325356   122A      0.328368  
     123A      0.329826   124A      0.339378   125A      0.353574  
     126A      0.357147   127A      0.362356   128A      0.368226  
     129A      0.379523   130A      0.379841   131A      0.388616  
     132A      0.391404   133A      0.393573   134A      0.396451  
     135A      0.407398   136A      0.412564   137A      0.418624  
     138A      0.430969   139A      0.438572   140A      0.444971  
     141A      0.453901   142A      0.464802   143A      0.473871  
     144A      0.491795   145A      0.499147   146A      0.507842  
     147A      0.525226   148A      0.529253   149A      0.536512  
     150A      0.549494   151A      0.560232   152A      0.576269  
     153A      0.586990   154A      0.602390   155A      0.607466  
     156A      0.640109   157A      0.661192   158A      0.665241  
     159A      0.699469   160A      0.707827   161A      0.717385  
     162A      0.726715   163A      0.744950   164A      0.752019  
     165A      0.766769   166A      0.775891   167A      0.793747  
     168A      0.797003   169A      0.809690   170A      0.823140  
     171A      0.824674   172A      0.865334   173A      0.873241  
     174A      0.881087   175A      0.882388   176A      0.899873  
     177A      0.911581   178A      0.917571   179A      0.936090  
     180A      0.947185   181A      0.959113   182A      0.970580  
     183A      0.973077   184A      0.986631   185A      1.012883  
     186A      1.022314   187A      1.035822   188A      1.048105  
     189A      1.065159   190A      1.071955   191A      1.075292  
     192A      1.089975   193A      1.109111   194A      1.140728  
     195A      1.162739   196A      1.173445   197A      1.193530  
     198A      1.199192   199A      1.209266   200A      1.216789  
     201A      1.227600   202A      1.234088   203A      1.263824  
     204A      1.278228   205A      1.282229   206A      1.317389  
     207A      1.320681   208A      1.331818   209A      1.342297  
     210A      1.372827   211A      1.399404   212A      1.401415  
     213A      1.412577   214A      1.416169   215A      1.436023  
     216A      1.446451   217A      1.454302   218A      1.460034  
     219A      1.467877   220A      1.484744   221A      1.498291  
     222A      1.517450   223A      1.522111   224A      1.528368  
     225A      1.552767   226A      1.604272   227A      1.621494  
     228A      1.644540   229A      1.658720   230A      1.665280  
     231A      1.705481   232A      1.744952   233A      1.748599  
     234A      1.754495   235A      1.757033   236A      1.774109  
     237A      1.780370   238A      1.781177   239A      1.807633  
     240A      1.816355   241A      1.833920   242A      1.856640  
     243A      1.868789   244A      1.892357   245A      1.895761  
     246A      1.901684   247A      1.914854   248A      1.944240  
     249A      1.958631   250A      1.961941   251A      1.968425  
     252A      2.003536   253A      2.033757   254A      2.040509  
     255A      2.052856   256A      2.057846   257A      2.075474  
     258A      2.085839   259A      2.097407   260A      2.110339  
     261A      2.140485   262A      2.147461   263A      2.162989  
     264A      2.200538   265A      2.203964   266A      2.208206  
     267A      2.247225   268A      2.257808   269A      2.261632  
     270A      2.273239   271A      2.301748   272A      2.306039  
     273A      2.327125   274A      2.338641   275A      2.345761  
     276A      2.361870   277A      2.376306   278A      2.398375  
     279A      2.459082   280A      2.461199   281A      2.506691  
     282A      2.511279   283A      2.564608   284A      2.623243  
     285A      2.650975   286A      2.672390   287A      2.700803  
     288A      2.724026   289A      2.731161   290A      2.760316  
     291A      2.764439   292A      2.818682   293A      2.824821  
     294A      2.847308   295A      2.893406   296A      2.941683  
     297A      2.959271   298A      3.023013   299A      3.118420  
     300A      3.150461   301A      3.206000   302A      3.229420  
     303A      3.333582   304A      3.373799   305A      3.459525  
     306A      3.481794   307A      4.049085   308A      4.274252  
     309A      4.328700   310A      4.340825   311A      4.358988  
     312A      4.371828   313A      4.415152   314A      4.466017  
     315A      4.479882   316A      4.526323   317A      4.577497  
     318A      4.776010   319A      4.835001   320A      5.109825  
     321A      5.692895   322A      7.137592  

    Final Occupation by Irrep:
              A 
    DOCC [    62 ]

  @DF-RKS Final Energy: -1188.11194355390148

   => Energetics <=

    Nuclear Repulsion Energy =           1178.2953246286879221
    One-Electron Energy =               -3970.5646988920238982
    Two-Electron Energy =                1693.6169374437113220
    DFT Exchange-Correlation Energy =     -89.4460450900248389
    Empirical Dispersion Energy =          -0.0134616442518645
    VV10 Nonlocal Energy =                  0.0000000000000000
    Total Energy =                      -1188.1119435539014830

Computation Completed


Properties will be evaluated at   0.000000,   0.000000,   0.000000 [a0]

Properties computed using the SCF density matrix

  Nuclear Dipole Moment: [e a0]
     X:    24.5855      Y:    -1.9029      Z:    -3.3804

  Electronic Dipole Moment: [e a0]
     X:   -21.9668      Y:     1.5050      Z:     3.1500

  Dipole Moment: [e a0]
     X:     2.6188      Y:    -0.3979      Z:    -0.2304     Total:     2.6588

  Dipole Moment: [D]
     X:     6.6563      Y:    -1.0114      Z:    -0.5857     Total:     6.7581


*** tstop() called on cpu-spot-dy-c5n2xlarge-1 at Mon Jun 21 23:03:56 2021
Module time:
	user time   =     546.07 seconds =       9.10 minutes
	system time =      10.10 seconds =       0.17 minutes
	total time  =         74 seconds =       1.23 minutes
Total time:
	user time   =     546.07 seconds =       9.10 minutes
	system time =      10.10 seconds =       0.17 minutes
	total time  =         74 seconds =       1.23 minutes

*** tstart() called on cpu-spot-dy-c5n2xlarge-1
*** at Mon Jun 21 23:03:56 2021


         ------------------------------------------------------------
                                   SCF GRAD                          
                          Rob Parrish, Justin Turney,                
                       Andy Simmonett, and Alex Sokolov              
         ------------------------------------------------------------

  ==> Geometry <==

    Molecular point group: c1
    Full point group: C1

    Geometry (in Angstrom), charge = 0, multiplicity = 1:

       Center              X                  Y                   Z               Mass       
    ------------   -----------------  -----------------  -----------------  -----------------
         N           -0.745776098682    -1.509486547959     0.374051656505    14.003074004430
         C           -2.020064098682    -1.315443547959     0.838689656505    12.000000000000
         C           -2.533617098682     0.162716452041     0.835951656505    12.000000000000
         F           -3.688126098682     0.198164452041     0.086185656505    18.998403162730
         F           -2.852378098682     0.491716452041     2.134482656505    18.998403162730
         C           -1.562202098682     1.262774452041     0.283595656505    12.000000000000
         C           -0.220213098682     0.829528452041    -0.168530343495    12.000000000000
         C            0.700954901318     1.780400452041    -0.662222343495    12.000000000000
         C            1.973861901318     1.391611452041    -1.097305343495    12.000000000000
         C            2.357708901318     0.026648452041    -1.051394343495    12.000000000000
         C            1.442252901318    -0.924298547959    -0.549957343495    12.000000000000
         C            0.162413901318    -0.539700547959    -0.113559343495    12.000000000000
         S            3.949089901318    -0.569544547959    -1.544229343495    31.972071174400
         C            4.891177901318    -0.609565547959     0.002102656505    12.000000000000
         O           -2.687276098682    -2.263322547959     1.227541656505    15.994914619570
         O           -1.912470098682     2.438367452041     0.240511656505    15.994914619570
         H            2.655451901318     2.157973452041    -1.465341343495     1.007825032230
         H            0.395246901318     2.826696452041    -0.695797343495     1.007825032230
         H           -0.472943098682    -2.482499547959     0.401380656505     1.007825032230
         H            1.732089901318    -1.974797547959    -0.501680343495     1.007825032230
         H            5.022387901318     0.412270452041     0.371324656505     1.007825032230
         H            4.352240901318    -1.204450547959     0.745963656505     1.007825032230
         H            5.869484901318    -1.060374547959    -0.190058343495     1.007825032230

  Nuclear repulsion = 1178.295324628687922

  ==> Basis Set <==

  Basis Set: 6-31+G*
    Blend: 6-31+G*
    Number of shells: 144
    Number of basis function: 322
    Number of Cartesian functions: 322
    Spherical Harmonics?: false
    Max angular momentum: 2

  ==> DFJKGrad: Density-Fitted SCF Gradients <==

    Gradient:                    1
    J tasked:                  Yes
    K tasked:                  Yes
    wK tasked:                 Yes
    Omega:               2.000E-01
    OpenMP threads:              8
    Integrals threads:           8
    Memory [MiB]:            11444
    Schwarz Cutoff:          0E+00
    Fitting Condition:       1E-10

   => Auxiliary Basis Set <=

  Basis Set: (6-31+G* AUX)
    Blend: HEAVY-AUG-CC-PVDZ-JKFIT
    Number of shells: 523
    Number of basis function: 1840
    Number of Cartesian functions: 1840
    Spherical Harmonics?: false
    Max angular momentum: 3

  ==> DFT Potential <==

   => Composite Functional: WB97X-D <= 

    wB97X-D Hyb-GGA Exchange-Correlation Functional

    J.-D. Chai and M. Head-Gordon, Phys. Chem. Chem. Phys. 10, 6615 (2008)

    Deriv               =              1
    GGA                 =           TRUE
    Meta                =          FALSE

    Exchange Hybrid     =           TRUE
    MP2 Hybrid          =          FALSE

   => Exchange-Correlation Functionals <=

    1.0000   wB97D range-separated functional

   => Exact (HF) Exchange <=

    0.7780            HF,LR [omega = 0.2000]
    0.2220               HF 

   => Molecular Quadrature <=

    Radial Scheme          =       TREUTLER
    Pruning Scheme         =           FLAT
    Nuclear Scheme         =       TREUTLER

    BS radius alpha        =              1
    Pruning alpha          =              1
    Radial Points          =             75
    Spherical Points       =            302
    Total Points           =         520860
    Total Blocks           =           3856
    Max Points             =            256
    Max Functions          =            284


  -Total Gradient:
     Atom            X                  Y                   Z
    ------   -----------------  -----------------  -----------------
       1       -0.006567366457    -0.012046658462     0.003869248044
       2        0.005704920929     0.013112439942    -0.004132213557
       3        0.013606763878    -0.002025884315    -0.003915327081
       4       -0.015975702450     0.000392782601    -0.010918169140
       5       -0.004052071729     0.004384999071     0.017473885122
       6       -0.000897483520    -0.024648628628     0.003520357792
       7       -0.007543697534     0.009066004076     0.001662860592
       8       -0.001871314567     0.011358593437    -0.000015384043
       9        0.003899719726     0.004962103515    -0.001499993591
      10        0.020081220654    -0.003106327260    -0.019375966748
      11        0.003963734645    -0.006664278224     0.000199180381
      12        0.004816839673    -0.007238490734    -0.000009675780
      13       -0.008896283962     0.001042638203     0.018854004007
      14        0.008219134093    -0.006153137365    -0.008855821669
      15       -0.004988462350    -0.022891941436     0.005110434035
      16       -0.000882514717     0.031414481041    -0.004271736249
      17       -0.000440801261     0.004779351066    -0.000192277869
      18       -0.000986355706     0.003761764783    -0.000254608839
      19       -0.003998431218     0.001278993391     0.001448715501
      20        0.000338654052    -0.002875709387     0.000914012421
      21       -0.002284463187     0.002243272130    -0.002003462313
      22       -0.002869866435    -0.000020714386    -0.000949224712
      23        0.002586179474    -0.000405283990     0.003004954822


*** tstop() called on cpu-spot-dy-c5n2xlarge-1 at Mon Jun 21 23:04:19 2021
Module time:
	user time   =     148.10 seconds =       2.47 minutes
	system time =       3.68 seconds =       0.06 minutes
	total time  =         23 seconds =       0.38 minutes
Total time:
	user time   =     694.18 seconds =      11.57 minutes
	system time =      13.78 seconds =       0.23 minutes
	total time  =         97 seconds =       1.62 minutes

			-----------------------------------------
			 OPTKING 2.0: for geometry optimizations 
			  - R.A. King,  Bethel University        
			-----------------------------------------
	At level 1: Red. Int., RFO, no backsteps, dynamic trust

	Internal coordinates to be generated automatically.
	Detected frag 1 with atoms:  1 2 3 4 5 6 7 8 9 10 11 12 13 14 15 16 17 18 19 20
	 21 22 23
	---Fragment 1 Bond Connectivity---
	 1 : 2 12 19
	 2 : 1 3 15
	 3 : 2 4 5 6
	 4 : 3
	 5 : 3
	 6 : 3 7 16
	 7 : 6 8 12
	 8 : 7 9 18
	 9 : 8 10 17
	 10 : 9 11 13
	 11 : 10 12 20
	 12 : 1 7 11
	 13 : 10 14
	 14 : 13 21 22 23
	 15 : 2
	 16 : 6
	 17 : 9
	 18 : 8
	 19 : 1
	 20 : 11
	 21 : 14
	 22 : 14
	 23 : 14

	Assuming in current code that numbering for constraints corresponds to unified fragment.
	Frozen dihedral atom list: 
	    11    10    13    14
	     9    10    13    14
	    21    14    13    10
	---Fragment 1 Geometry and Gradient---
	 N          -1.4093125774       -2.8525161657        0.7068551876
	 C          -3.8173679024       -2.4858280391        1.5848937550
	 C          -4.7878424233        0.3074895305        1.5797196849
	 F          -6.9695482427        0.3744765422        0.1628672867
	 F          -5.3902134128        0.9292094257        4.0335876403
	 C          -2.9521341191        2.3862978726        0.5359181212
	 C          -0.4161424457        1.5675815876       -0.3184761930
	 C           1.3246127898        3.3644692480       -1.2514188634
	 C           3.7300584030        2.6297645174       -2.0736065752
	 C           4.4554241070        0.0503582760       -1.9868473591
	 C           2.7254629871       -1.7466711138       -1.0392687599
	 C           0.3069177925       -1.0198862254       -0.2145960582
	 S           7.4626983583       -1.0762832119       -2.9181705341
	 C           9.2429866644       -1.1519119412        0.0039734449
	 O          -5.0782158500       -4.2770597492        2.3197175384
	 O          -3.6140447096        4.6078466776        0.4545011608
	 H           5.0180768328        4.0779788104       -2.7690938195
	 H           0.7469083954        5.3416821342       -1.3148664180
	 H          -0.8937329294       -4.6912442522        0.7584995129
	 H           3.2731755382       -3.7318265189       -0.9480384517
	 H           9.4909376293        0.7790782440        0.7017019044
	 H           8.2245433355       -2.2760816673        1.4096670103
	 H          11.0917189610       -2.0038174860       -0.3591582171
	            -0.0065673665       -0.0120466585        0.0038692480
	             0.0057049209        0.0131124399       -0.0041322136
	             0.0136067639       -0.0020258843       -0.0039153271
	            -0.0159757025        0.0003927826       -0.0109181691
	            -0.0040520717        0.0043849991        0.0174738851
	            -0.0008974835       -0.0246486286        0.0035203578
	            -0.0075436975        0.0090660041        0.0016628606
	            -0.0018713146        0.0113585934       -0.0000153840
	             0.0038997197        0.0049621035       -0.0014999936
	             0.0200812207       -0.0031063273       -0.0193759667
	             0.0039637346       -0.0066642782        0.0001991804
	             0.0048168397       -0.0072384907       -0.0000096758
	            -0.0088962840        0.0010426382        0.0188540040
	             0.0082191341       -0.0061531374       -0.0088558217
	            -0.0049884624       -0.0228919414        0.0051104340
	            -0.0008825147        0.0314144810       -0.0042717362
	            -0.0004408013        0.0047793511       -0.0001922779
	            -0.0009863557        0.0037617648       -0.0002546088
	            -0.0039984312        0.0012789934        0.0014487155
	             0.0003386541       -0.0028757094        0.0009140124
	            -0.0022844632        0.0022432721       -0.0020034623
	            -0.0028698664       -0.0000207144       -0.0009492247
	             0.0025861795       -0.0004052840        0.0030049548

	Previous optimization step data not found.  Starting new optimization.

	---Fragment 1 Intrafragment Coordinates---
	 - Coordinate -           - BOHR/RAD -       - ANG/DEG -
	 R(1,2)           =         2.589236	       1.370165
	 R(1,12)          =         2.674519	       1.415294
	 R(1,19)          =         1.910343	       1.010910
	 R(2,3)           =         2.957105	       1.564833
	 R(2,15)          =         2.310458	       1.222642
	 R(3,4)           =         2.602268	       1.377061
	 R(3,5)           =         2.602087	       1.376965
	 R(3,6)           =         2.963240	       1.568079
	 R(6,7)           =         2.798489	       1.480897
	 R(6,16)          =         2.319490	       1.227421
	 R(7,8)           =         2.670097	       1.412954
	 R(7,12)          =         2.688605	       1.422748
	 R(8,9)           =         2.646120	       1.400267
	 R(8,18)          =         2.060859	       1.090559
	 R(9,10)          =         2.680862	       1.418651
	 R(9,17)          =         2.059131	       1.089645
	 R(10,11)         =         2.668330	       1.412019
	 R(10,13)         =         3.343708	       1.769414
	 R(11,12)         =         2.656626	       1.405826
	 R(11,20)         =         2.061348	       1.090818
	 R(13,14)         =         3.422583	       1.811153
	 R(14,21)         =         2.068098	       1.094390
	 R(14,22)         =         2.068081	       1.094381
	 R(14,23)         =         2.067709	       1.094184
	 B(1,2,3)         =         2.024617	     116.001986
	 B(1,2,15)        =         2.100856	     120.370201
	 B(1,12,7)        =         2.094602	     120.011879
	 B(1,12,11)       =         2.098650	     120.243796
	 B(2,1,12)        =         2.235197	     128.067359
	 B(2,1,19)        =         1.958590	     112.218938
	 B(2,3,4)         =         1.875923	     107.482448
	 B(2,3,5)         =         1.875510	     107.458831
	 B(2,3,6)         =         2.048774	     117.386098
	 B(3,2,15)        =         2.157709	     123.627610
	 B(3,6,7)         =         2.052953	     117.625568
	 B(3,6,16)        =         2.103066	     120.496781
	 B(4,3,5)         =         1.889380	     108.253483
	 B(4,3,6)         =         1.885492	     108.030745
	 B(5,3,6)         =         1.883863	     107.937378
	 B(6,7,8)         =         2.095073	     120.038812
	 B(6,7,12)        =         2.110014	     120.894869
	 B(7,6,16)        =         2.127144	     121.876374
	 B(7,8,9)         =         2.111059	     120.954750
	 B(7,8,18)        =         2.064233	     118.271847
	 B(7,12,11)       =         2.089924	     119.743849
	 B(8,7,12)        =         2.078099	     119.066307
	 B(8,9,10)        =         2.097924	     120.202178
	 B(8,9,17)        =         2.069504	     118.573867
	 B(9,8,18)        =         2.107894	     120.773402
	 B(9,10,11)       =         2.076075	     118.950349
	 B(9,10,13)       =         2.163404	     123.953934
	 B(10,9,17)       =         2.115753	     121.223701
	 B(10,11,12)      =         2.113231	     121.079228
	 B(10,11,20)      =         2.085210	     119.473724
	 B(10,13,14)      =         1.810550	     103.736889
	 B(11,10,13)      =         2.043269	     117.070694
	 B(12,1,19)       =         2.089389	     119.713181
	 B(12,11,20)      =         2.084743	     119.446986
	 B(13,14,21)      =         1.906865	     109.255325
	 B(13,14,22)      =         1.913653	     109.644257
	 B(13,14,23)      =         1.901000	     108.919253
	 B(21,14,22)      =         1.914810	     109.710504
	 B(21,14,23)      =         1.914253	     109.678640
	 B(22,14,23)      =         1.913164	     109.616219
	 D(1,2,3,4)       =         2.146936	     123.010348
	 D(1,2,3,5)       =        -2.106169	    -120.674569
	 D(1,2,3,6)       =         0.019140	       1.096667
	 D(1,12,7,6)      =         0.003619	       0.207361
	 D(1,12,7,8)      =        -3.138658	    -179.831882
	 D(1,12,11,10)    =         3.131085	     179.397932
	 D(1,12,11,20)    =        -0.008923	      -0.511233
	 D(2,1,12,7)      =        -0.007040	      -0.403369
	 D(2,1,12,11)     =         3.138945	     179.848290
	 D(2,3,6,7)       =        -0.022029	      -1.262177
	 D(2,3,6,16)      =         3.126606	     179.141328
	 D(3,2,1,12)      =        -0.005052	      -0.289458
	 D(3,2,1,19)      =         3.141198	     179.977404
	 D(3,6,7,8)       =        -3.129983	    -179.334833
	 D(3,6,7,12)      =         0.010918	       0.625545
	 D(4,3,2,15)      =        -0.997514	     -57.153327
	 D(4,3,6,7)       =        -2.144876	    -122.892364
	 D(4,3,6,16)      =         1.003759	      57.511142
	 D(5,3,2,15)      =         1.032567	      59.161757
	 D(5,3,6,7)       =         2.098956	     120.261296
	 D(5,3,6,16)      =        -1.035595	     -59.335199
	 D(6,3,2,15)      =        -3.125309	    -179.067008
	 D(6,7,8,9)       =        -3.139300	    -179.868633
	 D(6,7,8,18)      =         0.002516	       0.144142
	 D(6,7,12,11)     =         3.140842	     179.956966
	 D(7,8,9,10)      =         0.002995	       0.171600
	 D(7,8,9,17)      =        -3.135439	    -179.647442
	 D(7,12,1,19)     =         3.129588	     179.312185
	 D(7,12,11,10)    =        -0.006128	      -0.351085
	 D(7,12,11,20)    =         3.137050	     179.739751
	 D(8,7,6,16)      =         0.004463	       0.255737
	 D(8,7,12,11)     =        -0.001436	      -0.082276
	 D(8,9,10,11)     =        -0.010375	      -0.594465
	 D(8,9,10,13)     =        -3.119234	    -178.718931
	 D(9,8,7,12)      =         0.002972	       0.170266
	 D(9,10,11,12)    =         0.011993	       0.687145
	 D(9,10,11,20)    =        -3.131186	    -179.403715
	*D(9,10,13,14)    =         1.641599	      94.056674
	 D(10,9,8,18)     =        -3.138826	    -179.841495
	*D(10,13,14,21)   =        -1.144677	     -65.585169
	 D(10,13,14,22)   =         0.954369	      54.681304
	 D(10,13,14,23)   =         3.047805	     174.626365
	 D(11,10,9,17)    =         3.127974	     179.219699
	*D(11,10,13,14)   =        -1.467826	     -84.100252
	 D(11,12,1,19)    =        -0.007612	      -0.436156
	 D(12,1,2,15)     =         3.139298	     179.868503
	 D(12,7,6,16)     =        -3.137821	    -179.783885
	 D(12,7,8,18)     =        -3.138398	    -179.816959
	 D(12,11,10,13)   =         3.123093	     178.940048
	 D(13,10,9,17)    =         0.019115	       1.095234
	 D(13,10,11,20)   =        -0.020085	      -1.150811
	 D(15,2,1,19)     =         0.002363	       0.135364
	 D(17,9,8,18)     =         0.005925	       0.339463

	Current energy   :     -1188.1119435539

	Generating empirical Hessian (Schlegel '84) for each fragment.
	Taking RFO optimization step.
	Going to follow RFO solution 1.
	Using RFO vector 1.
	Norm of target step-size    0.20717
	Projected energy change by RFO approximation:        -0.0117669429

	Back-transformation to cartesian coordinates...
	Could not converge backtransformation.
	Using first guess instead.

	Back-transformation to cartesian coordinates to adjust frozen coordinates...
	Successfully converged to displaced geometry.

	--- Internal Coordinate Step in ANG or DEG, aJ/ANG or AJ/DEG ---
	 ---------------------------------------------------------------------------
	   Coordinate                Previous        Force       Change         New 
	   ----------                --------       ------       ------       ------
	    1 R(1,2)          =      1.370165    -0.009470     0.000519     1.370683
	    2 R(1,12)         =      1.415294    -0.123889    -0.015243     1.400051
	    3 R(1,19)         =      1.010910     0.018895     0.003483     1.014393
	    4 R(2,3)          =      1.564833    -0.097871    -0.020598     1.544234
	    5 R(2,15)         =      1.222642    -0.182183    -0.008023     1.214619
	    6 R(3,4)          =      1.377061    -0.159657    -0.016920     1.360141
	    7 R(3,5)          =      1.376965    -0.152312    -0.017417     1.359548
	    8 R(3,6)          =      1.568079    -0.089852    -0.016810     1.551269
	    9 R(6,7)          =      1.480897    -0.052950    -0.008284     1.472613
	   10 R(6,16)         =      1.227421    -0.251386    -0.015730     1.211691
	   11 R(7,8)          =      1.412954    -0.112622    -0.013091     1.399863
	   12 R(7,12)         =      1.422748    -0.136065    -0.019649     1.403099
	   13 R(8,9)          =      1.400267    -0.115597    -0.014564     1.385702
	   14 R(8,18)         =      1.090559    -0.032256    -0.004882     1.085678
	   15 R(9,10)         =      1.418651    -0.144294    -0.019702     1.398949
	   16 R(9,17)         =      1.089645    -0.025768    -0.001604     1.088041
	   17 R(10,11)        =      1.412019    -0.113991    -0.013069     1.398950
	   18 R(10,13)        =      1.769414     0.039933     0.011158     1.780572
	   19 R(11,12)        =      1.405826    -0.104445    -0.013160     1.392666
	   20 R(11,20)        =      1.090818    -0.023718    -0.003239     1.087579
	   21 R(13,14)        =      1.811153     0.037070     0.016343     1.827496
	   22 R(14,21)        =      1.094390    -0.009561     0.000490     1.094880
	   23 R(14,22)        =      1.094381    -0.006636     0.002720     1.097101
	   24 R(14,23)        =      1.094184    -0.015693    -0.000775     1.093409
	   25 B(1,2,3)        =    116.001986    -0.000081    -0.142842   115.859144
	   26 B(1,2,15)       =    120.370201     0.000856     2.481577   122.851778
	   27 B(1,12,7)       =    120.011879     0.000268     0.536897   120.548776
	   28 B(1,12,11)      =    120.243796    -0.000320    -0.741124   119.502672
	   29 B(2,1,12)       =    128.067359    -0.000153    -0.517281   127.550079
	   30 B(2,1,19)       =    112.218938     0.000357     1.483976   113.702914
	   31 B(2,3,4)        =    107.482448    -0.000010    -0.021071   107.461376
	   32 B(2,3,5)        =    107.458831    -0.000015    -0.177818   107.281013
	   33 B(2,3,6)        =    117.386098     0.000056     0.407380   117.793479
	   34 B(3,2,15)       =    123.627610    -0.000775    -2.338723   121.288887
	   35 B(3,6,7)        =    117.625568    -0.000103    -0.166943   117.458625
	   36 B(3,6,16)       =    120.496781    -0.000715    -2.147126   118.349655
	   37 B(4,3,5)        =    108.253483    -0.000016    -0.179469   108.074014
	   38 B(4,3,6)        =    108.030745    -0.000005     0.004410   108.035156
	   39 B(5,3,6)        =    107.937378    -0.000015    -0.077343   107.860035
	   40 B(6,7,8)        =    120.038812    -0.000039     0.051668   120.090480
	   41 B(6,7,12)       =    120.894869     0.000015    -0.116821   120.778048
	   42 B(7,6,16)       =    121.876374     0.000819     2.315102   124.191476
	   43 B(7,8,9)        =    120.954750     0.000005     0.046760   121.001509
	   44 B(7,8,18)       =    118.271847    -0.000012    -0.068414   118.203433
	   45 B(7,12,11)      =    119.743849     0.000052     0.204550   119.948399
	   46 B(8,7,12)       =    119.066307     0.000025     0.065058   119.131365
	   47 B(8,9,10)       =    120.202178    -0.000108    -0.392167   119.810011
	   48 B(8,9,17)       =    118.573867     0.000340     1.494738   120.068605
	   49 B(9,8,18)       =    120.773402     0.000006     0.021054   120.794456
	   50 B(9,10,11)      =    118.950349     0.000243     0.691338   119.641687
	   51 B(9,10,13)      =    123.953934    -0.000895    -2.604370   121.349565
	   52 B(10,9,17)      =    121.223701    -0.000232    -1.104799   120.118902
	   53 B(10,11,12)     =    121.079228    -0.000218    -0.623970   120.455258
	   54 B(10,11,20)     =    119.473724     0.000050     0.044800   119.518524
	   55 B(10,13,14)     =    103.736889    -0.001537    -4.363123    99.373766
	   56 B(11,10,13)     =    117.070694     0.000651     1.912574   118.983268
	   57 B(12,1,19)      =    119.713181    -0.000204    -0.967087   118.746094
	   58 B(12,11,20)     =    119.446986     0.000167     0.573200   120.020186
	   59 B(13,14,21)     =    109.255325     0.000471     2.322055   111.577380
	   60 B(13,14,22)     =    109.644257     0.000317     1.398412   111.042670
	   61 B(13,14,23)     =    108.919253    -0.000569    -2.867811   106.051442
	   62 B(21,14,22)     =    109.710504    -0.000178     0.006580   109.717084
	   63 B(21,14,23)     =    109.678640     0.000009    -0.471296   109.207344
	   64 B(22,14,23)     =    109.616219    -0.000050    -0.471159   109.145060
	   65 D(1,2,3,4)      =    123.010348     0.000005     0.300554   123.310902
	   66 D(1,2,3,5)      =   -120.674569    -0.000002    -0.008421  -120.682990
	   67 D(1,2,3,6)      =      1.096667    -0.000001     0.027276     1.123943
	   68 D(1,12,7,6)     =      0.207361    -0.000000     0.033048     0.240409
	   69 D(1,12,7,8)     =   -179.831882    -0.000001    -0.046723  -179.878605
	   70 D(1,12,11,10)   =    179.397932    -0.000001    -0.105030   179.292902
	   71 D(1,12,11,20)   =     -0.511233     0.000006     0.701816     0.190583
	   72 D(2,1,12,7)     =     -0.403369     0.000001     0.047287    -0.356082
	   73 D(2,1,12,11)    =    179.848290    -0.000001    -0.061719   179.786571
	   74 D(2,3,6,7)      =     -1.262177     0.000001     0.038965    -1.223212
	   75 D(2,3,6,16)     =    179.141328    -0.000001    -0.192353   178.948975
	   76 D(3,2,1,12)     =     -0.289458    -0.000000    -0.072845    -0.362303
	   77 D(3,2,1,19)     =    179.977404     0.000000     0.015892   179.993296
	   78 D(3,6,7,8)      =   -179.334833    -0.000000     0.007746  -179.327087
	   79 D(3,6,7,12)     =      0.625545    -0.000001    -0.072782     0.552762
	   80 D(4,3,2,15)     =    -57.153327     0.000005     0.309644   -56.843683
	   81 D(4,3,6,7)      =   -122.892364    -0.000004    -0.224365  -123.116729
	   82 D(4,3,6,16)     =     57.511142    -0.000006    -0.455683    57.055459
	   83 D(5,3,2,15)     =     59.161757    -0.000002     0.000668    59.162424
	   84 D(5,3,6,7)      =    120.261296     0.000003     0.025072   120.286367
	   85 D(5,3,6,16)     =    -59.335199     0.000001    -0.206246   -59.541445
	   86 D(6,3,2,15)     =   -179.067008    -0.000001     0.036365  -179.030643
	   87 D(6,7,8,9)      =   -179.868633    -0.000002    -0.295447  -180.164080
	   88 D(6,7,8,18)     =      0.144142    -0.000000    -0.028220     0.115922
	   89 D(6,7,12,11)    =    179.956966     0.000001     0.140154   180.097121
	   90 D(7,8,9,10)     =      0.171600     0.000004     0.524843     0.696443
	   91 D(7,8,9,17)     =   -179.647442    -0.000003    -0.228453  -179.875896
	   92 D(7,12,1,19)    =    179.312185     0.000000    -0.039637   179.272548
	   93 D(7,12,11,10)   =     -0.351085    -0.000002    -0.214229    -0.565314
	   94 D(7,12,11,20)   =    179.739751     0.000004     0.592616   180.332367
	   95 D(8,7,6,16)     =      0.255737     0.000001     0.233976     0.489713
	   96 D(8,7,12,11)    =     -0.082276     0.000001     0.060384    -0.021893
	   97 D(8,9,10,11)    =     -0.594465    -0.000007    -0.677871    -1.272336
	   98 D(8,9,10,13)    =   -178.718931    -0.000008    -0.698398  -179.417329
	   99 D(9,8,7,12)     =      0.170266    -0.000001    -0.216169    -0.045903
	  100 D(9,10,11,12)   =      0.687145     0.000006     0.525949     1.213093
	  101 D(9,10,11,20)   =   -179.403715    -0.000001    -0.276388  -179.680103
	  102 *D(9,10,13,14)  =     94.056674     0.000000    -0.000000    94.056674
	  103 D(10,9,8,18)    =   -179.841495     0.000002     0.250678  -179.590817
	  104 *D(10,13,14,21) =    -65.585169    -0.000000    -0.000000   -65.585169
	  105 D(10,13,14,22)  =     54.681304     0.000061     2.476294    57.157598
	  106 D(10,13,14,23)  =    174.626365     0.000012     0.977852   175.604217
	  107 D(11,10,9,17)   =    179.219699     0.000001     0.080595   179.300294
	  108 *D(11,10,13,14) =    -84.100252     0.000000     0.000000   -84.100252
	  109 D(11,12,1,19)   =     -0.436156    -0.000001    -0.148643    -0.584799
	  110 D(12,1,2,15)    =    179.868503     0.000000    -0.073555   179.794947
	  111 D(12,7,6,16)    =   -179.783885    -0.000000     0.153448  -179.630438
	  112 D(12,7,8,18)    =   -179.816959     0.000001     0.051058  -179.765900
	  113 D(12,11,10,13)  =    178.940048     0.000001     0.462059   179.402107
	  114 D(13,10,9,17)   =      1.095234    -0.000000     0.060068     1.155301
	  115 D(13,10,11,20)  =     -1.150811    -0.000006    -0.340278    -1.491089
	  116 D(15,2,1,19)    =      0.135364     0.000001     0.015182     0.150547
	  117 D(17,9,8,18)    =      0.339463    -0.000005    -0.502619    -0.163156
	 ---------------------------------------------------------------------------
	Successfully symmetrized geometry.

  ==> Convergence Check <==

  Measures of convergence in internal coordinates in au.
  Criteria marked as inactive (o), active & met (*), and active & unmet ( ).
  --------------------------------------------------------------------------------------------- ~
   Step     Total Energy     Delta E     MAX Force     RMS Force      MAX Disp      RMS Disp    ~
  --------------------------------------------------------------------------------------------- ~
    Convergence Criteria             o    2.50e-03 *    1.70e-03 *    1.00e-02 *    6.70e-03 *  ~
  --------------------------------------------------------------------------------------------- ~
      1   -1188.11194355   -1.19e+03 o    3.05e-02      6.78e-03      7.62e-02      1.86e-02    ~
  ---------------------------------------------------------------------------------------------

	Writing optimization data to binary file.
	Structure for next step:
	Cartesian Geometry (in Angstrom)
	    N    -0.6936884372  -1.5134145389   0.4506817102
	    C    -1.9390634443  -1.3131274896   0.9870573694
	    C    -2.4382452764   0.1481060230   1.0035875967
	    F    -3.6222671553   0.1824969727   0.3350864512
	    F    -2.6763995978   0.4788815631   2.3005999176
	    C    -1.5127447844   1.2355508145   0.3974938383
	    C    -0.2075260449   0.8006390734  -0.1277150846
	    C     0.6768805371   1.7381643308  -0.6740551818
	    C     1.9110735203   1.3502740342  -1.1705216564
	    C     2.2794549169   0.0010073617  -1.1416576231
	    C     1.4081960893  -0.9423551195  -0.5866463431
	    C     0.1687794220  -0.5504400778  -0.0868802758
	    S     3.8610700790  -0.5407491656  -1.7543800487
	    C     4.8079738123  -0.5222908124  -0.1914427146
	    O    -2.6193816631  -2.2171807365   1.4288187058
	    O    -1.9026940291   2.3827378915   0.3876704833
	    H     2.5875338126   2.0920678595  -1.5900162980
	    H     0.3719996642   2.7799528232  -0.6945522945
	    H    -0.3985237347  -2.4838986211   0.4563279221
	    H     1.6988421983  -1.9900526001  -0.5605120376
	    H     4.9149666433   0.4936268378   0.2025446505
	    H     4.3357887540  -1.1639789764   0.5628171137
	    H     5.7972713823  -0.9206330490  -0.4326000993
			--------------------------
			 OPTKING Finished Execution 
			--------------------------

    Structure for next step:
    Molecular point group: c1
    Full point group: C1

    Geometry (in Angstrom), charge = 0, multiplicity = 1:

    N           -0.706255980310    -1.508789219472     0.416993689554
    C           -1.951630992241    -1.308502169401     0.953369350914
    C           -2.450812826351     0.152731348954     0.969899578229
    F           -3.634834709855     0.187122298846     0.301398430110
    F           -2.688967148611     0.483506890411     2.266911904208
    C           -1.525312330694     1.240176144733     0.363805817501
    C           -0.220093586015     0.805264401955    -0.161403107517
    C            0.664312999394     1.742789663051    -0.707743206865
    C            1.898505987520     1.354899364934    -1.204209683401
    C            2.266887385538     0.005632687048    -1.175345650010
    C            1.395628554451    -0.937729797830    -0.620334367805
    C            0.156211882340    -0.545814754569    -0.120568298563
    S            3.848502553826    -0.536123842339    -1.788068077999
    C            4.795406290828    -0.517665489051    -0.225130737751
    O           -2.631949213693    -2.212555419874     1.395130689050
    O           -1.915261576963     2.387363226297     0.353982462455
    H            2.574966282423     2.096693193147    -1.623704326686
    H            0.359432125331     2.784578159521    -0.728240319591
    H           -0.411091276586    -2.479273305484     0.422639901474
    H            1.686274664592    -1.985427282514    -0.594200062200
    H            4.902399122240     0.498252165144     0.168856628897
    H            4.323221230696    -1.159353655546     0.529129093546
    H            5.784703864719    -0.916007727214    -0.466288123363

gradient() will perform analytic gradient computation.

*** tstart() called on cpu-spot-dy-c5n2xlarge-1
*** at Mon Jun 21 23:04:19 2021

   => Loading Basis Set <=

    Name: 6-31+G*
    Role: ORBITAL
    Keyword: BASIS
    atoms 1             entry N          line   138 file /fsx/users/francis/anaconda3/envs/poltype-dev/share/psi4/basis/6-31pgs.gbs 
    atoms 2-3, 6-12, 14 entry C          line   119 file /fsx/users/francis/anaconda3/envs/poltype-dev/share/psi4/basis/6-31pgs.gbs 
    atoms 4-5           entry F          line   176 file /fsx/users/francis/anaconda3/envs/poltype-dev/share/psi4/basis/6-31pgs.gbs 
    atoms 13            entry S          line   344 file /fsx/users/francis/anaconda3/envs/poltype-dev/share/psi4/basis/6-31pgs.gbs 
    atoms 15-16         entry O          line   157 file /fsx/users/francis/anaconda3/envs/poltype-dev/share/psi4/basis/6-31pgs.gbs 
    atoms 17-23         entry H          line    46 file /fsx/users/francis/anaconda3/envs/poltype-dev/share/psi4/basis/6-31pgs.gbs 


         ---------------------------------------------------------
                                   SCF
               by Justin Turney, Rob Parrish, Andy Simmonett
                          and Daniel G. A. Smith
                              RKS Reference
                        8 Threads,  15258 MiB Core
         ---------------------------------------------------------

  ==> Geometry <==

    Molecular point group: c1
    Full point group: C1

    Geometry (in Angstrom), charge = 0, multiplicity = 1:

       Center              X                  Y                   Z               Mass       
    ------------   -----------------  -----------------  -----------------  -----------------
         N           -0.706255980310    -1.508789219472     0.416993689554    14.003074004430
         C           -1.951630992241    -1.308502169401     0.953369350914    12.000000000000
         C           -2.450812826351     0.152731348954     0.969899578229    12.000000000000
         F           -3.634834709855     0.187122298846     0.301398430110    18.998403162730
         F           -2.688967148611     0.483506890411     2.266911904208    18.998403162730
         C           -1.525312330694     1.240176144733     0.363805817501    12.000000000000
         C           -0.220093586015     0.805264401955    -0.161403107517    12.000000000000
         C            0.664312999394     1.742789663051    -0.707743206865    12.000000000000
         C            1.898505987520     1.354899364934    -1.204209683401    12.000000000000
         C            2.266887385538     0.005632687048    -1.175345650010    12.000000000000
         C            1.395628554451    -0.937729797830    -0.620334367805    12.000000000000
         C            0.156211882340    -0.545814754569    -0.120568298563    12.000000000000
         S            3.848502553826    -0.536123842339    -1.788068077999    31.972071174400
         C            4.795406290828    -0.517665489051    -0.225130737751    12.000000000000
         O           -2.631949213693    -2.212555419874     1.395130689050    15.994914619570
         O           -1.915261576963     2.387363226297     0.353982462455    15.994914619570
         H            2.574966282423     2.096693193147    -1.623704326686     1.007825032230
         H            0.359432125331     2.784578159521    -0.728240319591     1.007825032230
         H           -0.411091276586    -2.479273305484     0.422639901474     1.007825032230
         H            1.686274664592    -1.985427282514    -0.594200062200     1.007825032230
         H            4.902399122240     0.498252165144     0.168856628897     1.007825032230
         H            4.323221230696    -1.159353655546     0.529129093546     1.007825032230
         H            5.784703864719    -0.916007727214    -0.466288123363     1.007825032230

  Running in c1 symmetry.

  Rotational constants: A =      0.03674  B =      0.00850  C =      0.00743 [cm^-1]
  Rotational constants: A =   1101.58532  B =    254.85147  C =    222.73398 [MHz]
  Nuclear repulsion = 1188.826021446680897

  Charge       = 0
  Multiplicity = 1
  Electrons    = 124
  Nalpha       = 62
  Nbeta        = 62

  ==> Algorithm <==

  SCF Algorithm Type is DF.
  DIIS enabled.
  MOM disabled.
  Fractional occupation disabled.
  Guess Type is READ.
  Energy threshold   = 1.00e-08
  Density threshold  = 1.00e-08
  Integral threshold = 0.00e+00

  ==> Primary Basis <==

  Basis Set: 6-31+G*
    Blend: 6-31+G*
    Number of shells: 144
    Number of basis function: 322
    Number of Cartesian functions: 322
    Spherical Harmonics?: false
    Max angular momentum: 2

  ==> DFT Potential <==

   => Composite Functional: WB97X-D <= 

    wB97X-D Hyb-GGA Exchange-Correlation Functional

    J.-D. Chai and M. Head-Gordon, Phys. Chem. Chem. Phys. 10, 6615 (2008)

    Deriv               =              1
    GGA                 =           TRUE
    Meta                =          FALSE

    Exchange Hybrid     =           TRUE
    MP2 Hybrid          =          FALSE

   => Exchange-Correlation Functionals <=

    1.0000   wB97D range-separated functional

   => Exact (HF) Exchange <=

    0.7780            HF,LR [omega = 0.2000]
    0.2220               HF 

   => Molecular Quadrature <=

    Radial Scheme          =       TREUTLER
    Pruning Scheme         =           FLAT
    Nuclear Scheme         =       TREUTLER

    BS radius alpha        =              1
    Pruning alpha          =              1
    Radial Points          =             75
    Spherical Points       =            302
    Total Points           =         520857
    Total Blocks           =           3860
    Max Points             =            256
    Max Functions          =            283

   => WB97X-D: Empirical Dispersion <=

    Chai and Head-Gordon Dispersion Correction
    Chai, J.-D.; Head-Gordon, M. (2010), J. Chem. Phys., 132: 6615-6620

        s6 =       1.000000

   => Loading Basis Set <=

    Name: (6-31+G* AUX)
    Role: JKFIT
    Keyword: DF_BASIS_SCF
    atoms 1             entry N          line   252 file /fsx/users/francis/anaconda3/envs/poltype-dev/share/psi4/basis/heavy-aug-cc-pvdz-jkfit.gbs 
    atoms 2-3, 6-12, 14 entry C          line   194 file /fsx/users/francis/anaconda3/envs/poltype-dev/share/psi4/basis/heavy-aug-cc-pvdz-jkfit.gbs 
    atoms 4-5           entry F          line   368 file /fsx/users/francis/anaconda3/envs/poltype-dev/share/psi4/basis/heavy-aug-cc-pvdz-jkfit.gbs 
    atoms 13            entry S          line   730 file /fsx/users/francis/anaconda3/envs/poltype-dev/share/psi4/basis/heavy-aug-cc-pvdz-jkfit.gbs 
    atoms 15-16         entry O          line   310 file /fsx/users/francis/anaconda3/envs/poltype-dev/share/psi4/basis/heavy-aug-cc-pvdz-jkfit.gbs 
    atoms 17-23         entry H          line   116 file /fsx/users/francis/anaconda3/envs/poltype-dev/share/psi4/basis/heavy-aug-cc-pvdz-jkfit.gbs 

   => Loading Basis Set <=

    Name: 6-31+G*
    Role: ORBITAL
    Keyword: BASIS
    atoms 1             entry N          line   138 file /fsx/users/francis/anaconda3/envs/poltype-dev/share/psi4/basis/6-31pgs.gbs 
    atoms 2-3, 6-12, 14 entry C          line   119 file /fsx/users/francis/anaconda3/envs/poltype-dev/share/psi4/basis/6-31pgs.gbs 
    atoms 4-5           entry F          line   176 file /fsx/users/francis/anaconda3/envs/poltype-dev/share/psi4/basis/6-31pgs.gbs 
    atoms 13            entry S          line   344 file /fsx/users/francis/anaconda3/envs/poltype-dev/share/psi4/basis/6-31pgs.gbs 
    atoms 15-16         entry O          line   157 file /fsx/users/francis/anaconda3/envs/poltype-dev/share/psi4/basis/6-31pgs.gbs 
    atoms 17-23         entry H          line    46 file /fsx/users/francis/anaconda3/envs/poltype-dev/share/psi4/basis/6-31pgs.gbs 

  Reading orbitals from file 180, no projection.

  ==> Pre-Iterations <==

   -------------------------------------------------------
    Irrep   Nso     Nmo     Nalpha   Nbeta   Ndocc  Nsocc
   -------------------------------------------------------
     A        322     322       0       0       0       0
   -------------------------------------------------------
    Total     322     322      62      62      62       0
   -------------------------------------------------------

  ==> Integral Setup <==

  ==> DiskDFJK: Density-Fitted J/K Matrices <==

    J tasked:                  Yes
    K tasked:                  Yes
    wK tasked:                 Yes
    Omega:               2.000E-01
    OpenMP threads:              8
    Integrals threads:           8
    Memory [MiB]:             8413
    Algorithm:                Core
    Integral Cache:           NONE
    Schwarz Cutoff:          1E-12
    Fitting Condition:       1E-10

   => Auxiliary Basis Set <=

  Basis Set: (6-31+G* AUX)
    Blend: HEAVY-AUG-CC-PVDZ-JKFIT
    Number of shells: 523
    Number of basis function: 1840
    Number of Cartesian functions: 1840
    Spherical Harmonics?: false
    Max angular momentum: 3

  Cached 100.0% of DFT collocation blocks in 2.960 [GiB].

  Minimum eigenvalue in the overlap matrix is 5.8641203961E-07.
  Using Symmetric Orthogonalization.

  SCF Guess: Orbitals guess was supplied from a previous computation.

  ==> Iterations <==

                           Total Energy        Delta E     RMS |[F,P]|

   @DF-RKS iter   0: -1188.22933495776601   -1.18823e+03   1.50910e-03 
   @DF-RKS iter   1: -1188.11455161188996    1.14783e-01   2.27777e-04 DIIS
   @DF-RKS iter   2: -1188.11538580039041   -8.34189e-04   2.69162e-04 DIIS
   @DF-RKS iter   3: -1188.11851021636289   -3.12442e-03   5.63371e-05 DIIS
   @DF-RKS iter   4: -1188.11864889488356   -1.38679e-04   2.66094e-05 DIIS
   @DF-RKS iter   5: -1188.11869003638344   -4.11415e-05   7.52316e-06 DIIS
   @DF-RKS iter   6: -1188.11869393133406   -3.89495e-06   2.60999e-06 DIIS
   @DF-RKS iter   7: -1188.11869476236348   -8.31029e-07   1.18204e-06 DIIS
   @DF-RKS iter   8: -1188.11869499336126   -2.30998e-07   4.53587e-07 DIIS
   @DF-RKS iter   9: -1188.11869504367860   -5.03173e-08   2.41016e-07 DIIS
   @DF-RKS iter  10: -1188.11869505378672   -1.01081e-08   1.25301e-07 DIIS
   @DF-RKS iter  11: -1188.11869505637219   -2.58547e-09   4.72157e-08 DIIS
   @DF-RKS iter  12: -1188.11869505669483   -3.22643e-10   2.13204e-08 DIIS
   @DF-RKS iter  13: -1188.11869505676054   -6.57110e-11   7.59707e-09 DIIS
  Energy and wave function converged.


  ==> Post-Iterations <==

    Orbital Energies [Eh]
    ---------------------

    Doubly Occupied:                                                      

       1A    -89.071426     2A    -24.875953     3A    -24.874967  
       4A    -19.310803     5A    -19.295949     6A    -14.545460  
       7A    -10.505553     8A    -10.457498     9A    -10.435823  
      10A    -10.409522    11A    -10.380416    12A    -10.357085  
      13A    -10.353087    14A    -10.353059    15A    -10.348812  
      16A    -10.343568    17A     -8.088431    18A     -6.039245  
      19A     -6.035289    20A     -6.028014    21A     -1.392953  
      22A     -1.332399    23A     -1.194334    24A     -1.189249  
      25A     -1.102077    26A     -1.006758    27A     -0.940526  
      28A     -0.906289    29A     -0.891738    30A     -0.867322  
      31A     -0.793373    32A     -0.770743    33A     -0.757222  
      34A     -0.742897    35A     -0.700122    36A     -0.685324  
      37A     -0.673179    38A     -0.648882    39A     -0.631412  
      40A     -0.593697    41A     -0.581833    42A     -0.571574  
      43A     -0.564451    44A     -0.560976    45A     -0.558872  
      46A     -0.554492    47A     -0.539434    48A     -0.534010  
      49A     -0.529596    50A     -0.519897    51A     -0.512131  
      52A     -0.502306    53A     -0.496602    54A     -0.479771  
      55A     -0.475972    56A     -0.443983    57A     -0.425123  
      58A     -0.399314    59A     -0.370922    60A     -0.370268  
      61A     -0.340515    62A     -0.336160  

    Virtual:                                                              

      63A     -0.051884    64A      0.011005    65A      0.041917  
      66A      0.043956    67A      0.057984    68A      0.061987  
      69A      0.063381    70A      0.070702    71A      0.075417  
      72A      0.089260    73A      0.093836    74A      0.096225  
      75A      0.105646    76A      0.112502    77A      0.113865  
      78A      0.116315    79A      0.123867    80A      0.129802  
      81A      0.136834    82A      0.139363    83A      0.142597  
      84A      0.146872    85A      0.154820    86A      0.163735  
      87A      0.167014    88A      0.175741    89A      0.176504  
      90A      0.177956    91A      0.183437    92A      0.189943  
      93A      0.197469    94A      0.198955    95A      0.206052  
      96A      0.208283    97A      0.211398    98A      0.221318  
      99A      0.223562   100A      0.230538   101A      0.233192  
     102A      0.236882   103A      0.241491   104A      0.246286  
     105A      0.249059   106A      0.251724   107A      0.258063  
     108A      0.263494   109A      0.267304   110A      0.275363  
     111A      0.279401   112A      0.285903   113A      0.289342  
     114A      0.294686   115A      0.302172   116A      0.304329  
     117A      0.308352   118A      0.313083   119A      0.317439  
     120A      0.321162   121A      0.326664   122A      0.331594  
     123A      0.334157   124A      0.343354   125A      0.357464  
     126A      0.359664   127A      0.364996   128A      0.370422  
     129A      0.382267   130A      0.386627   131A      0.391156  
     132A      0.393410   133A      0.396958   134A      0.404539  
     135A      0.409750   136A      0.414925   137A      0.418512  
     138A      0.435117   139A      0.441037   140A      0.447776  
     141A      0.457156   142A      0.470167   143A      0.474844  
     144A      0.496759   145A      0.502071   146A      0.515418  
     147A      0.529389   148A      0.534564   149A      0.546899  
     150A      0.553557   151A      0.557778   152A      0.581449  
     153A      0.602858   154A      0.606439   155A      0.618815  
     156A      0.645787   157A      0.659637   158A      0.669525  
     159A      0.706419   160A      0.710554   161A      0.725781  
     162A      0.732431   163A      0.745675   164A      0.758344  
     165A      0.768701   166A      0.779381   167A      0.796596  
     168A      0.801174   169A      0.814361   170A      0.825596  
     171A      0.833115   172A      0.868780   173A      0.871739  
     174A      0.884361   175A      0.888154   176A      0.903878  
     177A      0.915317   178A      0.920446   179A      0.940409  
     180A      0.954975   181A      0.965042   182A      0.968695  
     183A      0.977687   184A      0.990975   185A      1.011282  
     186A      1.022102   187A      1.037088   188A      1.048892  
     189A      1.063650   190A      1.067835   191A      1.074692  
     192A      1.088704   193A      1.113653   194A      1.144726  
     195A      1.163182   196A      1.173435   197A      1.197423  
     198A      1.205104   199A      1.208180   200A      1.222529  
     201A      1.228250   202A      1.242980   203A      1.265423  
     204A      1.278069   205A      1.282722   206A      1.323115  
     207A      1.324762   208A      1.332557   209A      1.344474  
     210A      1.378715   211A      1.400587   212A      1.408107  
     213A      1.414740   214A      1.426524   215A      1.444832  
     216A      1.445850   217A      1.462091   218A      1.469539  
     219A      1.476698   220A      1.492548   221A      1.505149  
     222A      1.515552   223A      1.521704   224A      1.529450  
     225A      1.556372   226A      1.616085   227A      1.636370  
     228A      1.654651   229A      1.669331   230A      1.677813  
     231A      1.712924   232A      1.745238   233A      1.756207  
     234A      1.758213   235A      1.765194   236A      1.776265  
     237A      1.778532   238A      1.784552   239A      1.807995  
     240A      1.825043   241A      1.836542   242A      1.870942  
     243A      1.883780   244A      1.895586   245A      1.908224  
     246A      1.910425   247A      1.920377   248A      1.950628  
     249A      1.965860   250A      1.969316   251A      1.979165  
     252A      2.016770   253A      2.038348   254A      2.049449  
     255A      2.061240   256A      2.067173   257A      2.088110  
     258A      2.111822   259A      2.113063   260A      2.133929  
     261A      2.170178   262A      2.172594   263A      2.179582  
     264A      2.211031   265A      2.224586   266A      2.227816  
     267A      2.248038   268A      2.263818   269A      2.277132  
     270A      2.290229   271A      2.317480   272A      2.322351  
     273A      2.330014   274A      2.346751   275A      2.355905  
     276A      2.378557   277A      2.387398   278A      2.427548  
     279A      2.475427   280A      2.483337   281A      2.524684  
     282A      2.552362   283A      2.599495   284A      2.649784  
     285A      2.682513   286A      2.689110   287A      2.726023  
     288A      2.742643   289A      2.756990   290A      2.776534  
     291A      2.786440   292A      2.836002   293A      2.838378  
     294A      2.872389   295A      2.923237   296A      2.964589  
     297A      2.984715   298A      3.046525   299A      3.148434  
     300A      3.180340   301A      3.219571   302A      3.250058  
     303A      3.364695   304A      3.414405   305A      3.506182  
     306A      3.518321   307A      4.049833   308A      4.295668  
     309A      4.338247   310A      4.351168   311A      4.366176  
     312A      4.387871   313A      4.428496   314A      4.483417  
     315A      4.489174   316A      4.537316   317A      4.597412  
     318A      4.816237   319A      4.878764   320A      5.153124  
     321A      5.711536   322A      7.244490  

    Final Occupation by Irrep:
              A 
    DOCC [    62 ]

  @DF-RKS Final Energy: -1188.11869505676054

   => Energetics <=

    Nuclear Repulsion Energy =           1188.8260214466808975
    One-Electron Energy =               -3991.5678097166246516
    Two-Electron Energy =                1704.1711180599556883
    DFT Exchange-Correlation Energy =     -89.5343928578116675
    Empirical Dispersion Energy =          -0.0136319889607391
    VV10 Nonlocal Energy =                  0.0000000000000000
    Total Energy =                      -1188.1186950567603162

Computation Completed


Properties will be evaluated at   0.000000,   0.000000,   0.000000 [a0]

Properties computed using the SCF density matrix

  Nuclear Dipole Moment: [e a0]
     X:    24.0654      Y:    -1.7295      Z:    -4.6113

  Electronic Dipole Moment: [e a0]
     X:   -21.4697      Y:     1.3103      Z:     4.1995

  Dipole Moment: [e a0]
     X:     2.5957      Y:    -0.4192      Z:    -0.4119     Total:     2.6614

  Dipole Moment: [D]
     X:     6.5977      Y:    -1.0656      Z:    -1.0468     Total:     6.7647


*** tstop() called on cpu-spot-dy-c5n2xlarge-1 at Mon Jun 21 23:05:23 2021
Module time:
	user time   =     477.50 seconds =       7.96 minutes
	system time =       6.70 seconds =       0.11 minutes
	total time  =         64 seconds =       1.07 minutes
Total time:
	user time   =    1173.64 seconds =      19.56 minutes
	system time =      20.59 seconds =       0.34 minutes
	total time  =        161 seconds =       2.68 minutes

*** tstart() called on cpu-spot-dy-c5n2xlarge-1
*** at Mon Jun 21 23:05:23 2021


         ------------------------------------------------------------
                                   SCF GRAD                          
                          Rob Parrish, Justin Turney,                
                       Andy Simmonett, and Alex Sokolov              
         ------------------------------------------------------------

  ==> Geometry <==

    Molecular point group: c1
    Full point group: C1

    Geometry (in Angstrom), charge = 0, multiplicity = 1:

       Center              X                  Y                   Z               Mass       
    ------------   -----------------  -----------------  -----------------  -----------------
         N           -0.706255980310    -1.508789219472     0.416993689554    14.003074004430
         C           -1.951630992241    -1.308502169401     0.953369350914    12.000000000000
         C           -2.450812826351     0.152731348954     0.969899578229    12.000000000000
         F           -3.634834709855     0.187122298846     0.301398430110    18.998403162730
         F           -2.688967148611     0.483506890411     2.266911904208    18.998403162730
         C           -1.525312330694     1.240176144733     0.363805817501    12.000000000000
         C           -0.220093586015     0.805264401955    -0.161403107517    12.000000000000
         C            0.664312999394     1.742789663051    -0.707743206865    12.000000000000
         C            1.898505987520     1.354899364934    -1.204209683401    12.000000000000
         C            2.266887385538     0.005632687048    -1.175345650010    12.000000000000
         C            1.395628554451    -0.937729797830    -0.620334367805    12.000000000000
         C            0.156211882340    -0.545814754569    -0.120568298563    12.000000000000
         S            3.848502553826    -0.536123842339    -1.788068077999    31.972071174400
         C            4.795406290828    -0.517665489051    -0.225130737751    12.000000000000
         O           -2.631949213693    -2.212555419874     1.395130689050    15.994914619570
         O           -1.915261576963     2.387363226297     0.353982462455    15.994914619570
         H            2.574966282423     2.096693193147    -1.623704326686     1.007825032230
         H            0.359432125331     2.784578159521    -0.728240319591     1.007825032230
         H           -0.411091276586    -2.479273305484     0.422639901474     1.007825032230
         H            1.686274664592    -1.985427282514    -0.594200062200     1.007825032230
         H            4.902399122240     0.498252165144     0.168856628897     1.007825032230
         H            4.323221230696    -1.159353655546     0.529129093546     1.007825032230
         H            5.784703864719    -0.916007727214    -0.466288123363     1.007825032230

  Nuclear repulsion = 1188.826021446680897

  ==> Basis Set <==

  Basis Set: 6-31+G*
    Blend: 6-31+G*
    Number of shells: 144
    Number of basis function: 322
    Number of Cartesian functions: 322
    Spherical Harmonics?: false
    Max angular momentum: 2

  ==> DFJKGrad: Density-Fitted SCF Gradients <==

    Gradient:                    1
    J tasked:                  Yes
    K tasked:                  Yes
    wK tasked:                 Yes
    Omega:               2.000E-01
    OpenMP threads:              8
    Integrals threads:           8
    Memory [MiB]:            11444
    Schwarz Cutoff:          0E+00
    Fitting Condition:       1E-10

   => Auxiliary Basis Set <=

  Basis Set: (6-31+G* AUX)
    Blend: HEAVY-AUG-CC-PVDZ-JKFIT
    Number of shells: 523
    Number of basis function: 1840
    Number of Cartesian functions: 1840
    Spherical Harmonics?: false
    Max angular momentum: 3

  ==> DFT Potential <==

   => Composite Functional: WB97X-D <= 

    wB97X-D Hyb-GGA Exchange-Correlation Functional

    J.-D. Chai and M. Head-Gordon, Phys. Chem. Chem. Phys. 10, 6615 (2008)

    Deriv               =              1
    GGA                 =           TRUE
    Meta                =          FALSE

    Exchange Hybrid     =           TRUE
    MP2 Hybrid          =          FALSE

   => Exchange-Correlation Functionals <=

    1.0000   wB97D range-separated functional

   => Exact (HF) Exchange <=

    0.7780            HF,LR [omega = 0.2000]
    0.2220               HF 

   => Molecular Quadrature <=

    Radial Scheme          =       TREUTLER
    Pruning Scheme         =           FLAT
    Nuclear Scheme         =       TREUTLER

    BS radius alpha        =              1
    Pruning alpha          =              1
    Radial Points          =             75
    Spherical Points       =            302
    Total Points           =         520857
    Total Blocks           =           3860
    Max Points             =            256
    Max Functions          =            283


  -Total Gradient:
     Atom            X                  Y                   Z
    ------   -----------------  -----------------  -----------------
       1        0.000693353365     0.002499217881    -0.000940402769
       2        0.003048640313     0.006507250819    -0.002046917097
       3        0.005871424258    -0.000556584786    -0.001349328588
       4       -0.004481973748     0.000074236141    -0.001966577347
       5       -0.001082373343     0.000529475541     0.002954294787
       6        0.000478296048    -0.005061130216     0.000982792598
       7       -0.001560215080    -0.000811356057     0.000769773625
       8        0.001058302672     0.000210821008    -0.000879568793
       9       -0.001171572696    -0.003396191076     0.003244402181
      10        0.004803008905     0.003200859541    -0.008173508140
      11       -0.002823286593    -0.000115052228     0.003392026414
      12        0.003963634570    -0.000187365934    -0.001892992959
      13       -0.003091105276    -0.000593766787     0.000054540470
      14        0.001481414954     0.000627544250    -0.000835113490
      15       -0.005268042677    -0.007139321402     0.003411572810
      16       -0.000948744655     0.003800685555    -0.000264755707
      17        0.000751533156     0.002035172238    -0.000430594206
      18        0.000226633671     0.000103072789    -0.000103564167
      19       -0.000730391557    -0.001232848002     0.000547261273
      20        0.000058708736    -0.000490477193     0.000314114555
      21        0.000571212186     0.001195375485     0.001380329659
      22       -0.001213985662    -0.001329602975     0.002373453144
      23        0.000115095029    -0.000256769073    -0.000696076585


*** tstop() called on cpu-spot-dy-c5n2xlarge-1 at Mon Jun 21 23:05:47 2021
Module time:
	user time   =     151.02 seconds =       2.52 minutes
	system time =       3.58 seconds =       0.06 minutes
[...]
	 B(8,9,10)        =         2.086875	     119.569149
	 B(8,9,17)        =         2.105354	     120.627884
	 B(9,8,18)        =         2.111401	     120.974366
	 B(9,10,11)       =         2.098389	     120.228831
	 B(9,10,13)       =         2.098889	     120.257464
	 B(10,9,17)       =         2.090945	     119.802295
	 B(10,11,12)      =         2.097193	     120.160334
	 B(10,11,20)      =         2.087116	     119.582939
	 B(10,13,14)      =         1.730504	      99.150562
	 B(11,10,13)      =         2.085457	     119.487908
	 B(12,1,19)       =         2.069236	     118.558513
	 B(12,11,20)      =         2.098753	     120.249704
	 B(13,14,21)      =         1.937086	     110.986851
	 B(13,14,22)      =         1.937570	     111.014588
	 B(13,14,23)      =         1.859507	     106.541885
	 B(21,14,22)      =         1.921769	     110.109269
	 B(21,14,23)      =         1.903436	     109.058869
	 B(22,14,23)      =         1.902932	     109.029995
	 D(1,2,3,4)       =         2.757292	     157.981216
	 D(1,2,3,5)       =        -1.485437	     -85.109272
	 D(1,2,3,6)       =         0.542418	      31.078278
	 D(1,12,7,6)      =         0.023094	       1.323198
	 D(1,12,7,8)      =        -3.095147	    -177.338846
	 D(1,12,11,10)    =         3.099967	     177.615006
	 D(1,12,11,20)    =        -0.024730	      -1.416945
	 D(2,1,12,7)      =        -0.075107	      -4.303305
	 D(2,1,12,11)     =         3.102642	     177.768271
	 D(2,3,6,7)       =        -0.589411	     -33.770749
	 D(2,3,6,16)      =         2.611471	     149.626274
	 D(3,2,1,12)      =        -0.219569	     -12.580396
	 D(3,2,1,19)      =         3.037915	     174.059688
	 D(3,6,7,8)       =        -2.854226	    -163.535102
	 D(3,6,7,12)      =         0.310903	      17.813423
	 D(4,3,2,15)      =        -0.452654	     -25.935191
	 D(4,3,6,7)       =        -2.794918	    -160.137030
	 D(4,3,6,16)      =         0.405963	      23.259993
	 D(5,3,2,15)      =         1.587801	      90.974321
	 D(5,3,6,7)       =         1.440743	      82.548485
	 D(5,3,6,16)      =        -1.641561	     -94.054492
	 D(6,3,2,15)      =        -2.667529	    -152.838129
	 D(6,7,8,9)       =        -3.132033	    -179.452277
	 D(6,7,8,18)      =         0.014306	       0.819691
	 D(6,7,12,11)     =         3.128432	     179.245941
	 D(7,8,9,10)      =         0.013084	       0.749668
	 D(7,8,9,17)      =        -3.133722	    -179.549046
	 D(7,12,1,19)     =         2.946724	     168.834843
	 D(7,12,11,10)    =        -0.005896	      -0.337831
	 D(7,12,11,20)    =        -3.130593	    -179.369783
	 D(8,7,6,16)      =         0.224812	      12.880777
	 D(8,7,12,11)     =         0.010191	       0.583897
	 D(8,9,10,11)     =        -0.008642	      -0.495137
	 D(8,9,10,13)     =        -3.117827	    -178.638326
	 D(9,8,7,12)      =        -0.013895	      -0.796149
	 D(9,10,11,12)    =         0.005118	       0.293232
	 D(9,10,11,20)    =         3.129928	     179.331645
	*D(9,10,13,14)    =         1.641599	      94.056674
	 D(10,9,8,18)     =        -3.133383	    -179.529613
	*D(10,13,14,21)   =        -1.144677	     -65.585169
	 D(10,13,14,22)   =         0.998743	      57.223763
	 D(10,13,14,23)   =         3.068455	     175.809523
	 D(11,10,9,17)    =         3.138121	     179.801081
	*D(11,10,13,14)   =        -1.467826	     -84.100252
	 D(11,12,1,19)    =        -0.158713	      -9.093581
	 D(12,1,2,15)     =         2.991313	     171.389600
	 D(12,7,6,16)     =        -2.893244	    -165.770698
	 D(12,7,8,18)     =         3.132444	     179.475818
	 D(12,11,10,13)   =         3.114552	     178.450696
	 D(13,10,9,17)    =         0.028936	       1.657892
	 D(13,10,11,20)   =        -0.043823	      -2.510891
	 D(15,2,1,19)     =        -0.034388	      -1.970316
	 D(17,9,8,18)     =         0.002996	       0.171673

	Current energy   :     -1188.1203406932

	Energy change for the previous step:
		Projected    :         0.0000577552
		Actual       :        -0.0000274010

	Performing BFGS update.
	Previous computed or guess Hessian on step 1.
	Steps to be used in Hessian update: 7 6
	Taking RFO optimization step.
	Going to follow RFO solution 1.
	Using RFO vector 1.
	Norm of target step-size    0.03198
	Projected energy change by RFO approximation:        -0.0000436806

	Back-transformation to cartesian coordinates...
	Successfully converged to displaced geometry.

	Back-transformation to cartesian coordinates to adjust frozen coordinates...
	Successfully converged to displaced geometry.

	--- Internal Coordinate Step in ANG or DEG, aJ/ANG or AJ/DEG ---
	 ---------------------------------------------------------------------------
	   Coordinate                Previous        Force       Change         New 
	   ----------                --------       ------       ------       ------
	    1 R(1,2)          =      1.370200     0.002322     0.000422     1.370622
	    2 R(1,12)         =      1.400922    -0.002016    -0.000477     1.400444
	    3 R(1,19)         =      1.012818     0.000731     0.000098     1.012916
	    4 R(2,3)          =      1.543989     0.005336     0.001718     1.545706
	    5 R(2,15)         =      1.208069     0.001075    -0.000045     1.208024
	    6 R(3,4)          =      1.333002     0.002714     0.000154     1.333157
	    7 R(3,5)          =      1.377197    -0.002392    -0.000023     1.377173
	    8 R(3,6)          =      1.547855     0.001895     0.000834     1.548689
	    9 R(6,7)          =      1.473296     0.004969     0.001182     1.474479
	   10 R(6,16)         =      1.208541    -0.008189    -0.000906     1.207635
	   11 R(7,8)          =      1.397166     0.002277     0.000748     1.397914
	   12 R(7,12)         =      1.404908    -0.002982    -0.001033     1.403875
	   13 R(8,9)          =      1.386377    -0.002255    -0.000733     1.385644
	   14 R(8,18)         =      1.085656     0.000070     0.000063     1.085719
	   15 R(9,10)         =      1.400065     0.001476     0.000716     1.400782
	   16 R(9,17)         =      1.084948    -0.000253    -0.000100     1.084848
	   17 R(10,11)        =      1.394489    -0.005451    -0.001422     1.393067
	   18 R(10,13)        =      1.787726     0.001250     0.000830     1.788557
	   19 R(11,12)        =      1.394543     0.002321     0.000950     1.395493
	   20 R(11,20)        =      1.086808     0.000052     0.000009     1.086817
	   21 R(13,14)        =      1.822686    -0.002189    -0.001027     1.821659
	   22 R(14,21)        =      1.092310     0.000637     0.000177     1.092487
	   23 R(14,22)        =      1.092346     0.000754     0.000190     1.092536
	   24 R(14,23)        =      1.092945     0.000465     0.000152     1.093097
	   25 B(1,2,3)        =    113.938668    -0.000007    -0.017953   113.920715
	   26 B(1,2,15)       =    123.567908    -0.000010    -0.012602   123.555306
	   27 B(1,12,7)       =    120.856773     0.000021     0.105522   120.962296
	   28 B(1,12,11)      =    119.417203    -0.000021    -0.079973   119.337230
	   29 B(2,1,12)       =    126.286574    -0.000002    -0.027213   126.259361
	   30 B(2,1,19)       =    114.834326     0.000016     0.094387   114.928713
	   31 B(2,3,4)        =    110.083170    -0.000007    -0.100256   109.982913
	   32 B(2,3,5)        =    105.696802    -0.000006     0.019218   105.716021
	   33 B(2,3,6)        =    115.548550     0.000001     0.013560   115.562111
	   34 B(3,2,15)       =    122.369374     0.000018     0.059894   122.429268
	   35 B(3,6,7)        =    114.538272    -0.000016    -0.096398   114.441874
	   36 B(3,6,16)       =    120.293392     0.000005     0.039937   120.333329
	   37 B(4,3,5)        =    108.439928     0.000011     0.084672   108.524600
	   38 B(4,3,6)        =    111.144064    -0.000003    -0.045904   111.098159
	   39 B(5,3,6)        =    105.463872     0.000005     0.047701   105.511573
	   40 B(6,7,8)        =    120.400456    -0.000001    -0.023568   120.376888
	   41 B(6,7,12)       =    119.965867     0.000005     0.007895   119.973762
	   42 B(7,6,16)       =    125.071659     0.000012     0.074306   125.145966
	   43 B(7,8,9)        =    120.722607     0.000004     0.018039   120.740646
	   44 B(7,8,18)       =    118.302457    -0.000012    -0.108779   118.193678
	   45 B(7,12,11)      =    119.693784    -0.000001    -0.020982   119.672803
	   46 B(8,7,12)       =    119.620037    -0.000004     0.016121   119.636158
	   47 B(8,9,10)       =    119.569149    -0.000012    -0.073467   119.495682
	   48 B(8,9,17)       =    120.627884     0.000016     0.126406   120.754291
	   49 B(9,8,18)       =    120.974366     0.000009     0.088480   121.062846
	   50 B(9,10,11)      =    120.228831     0.000015     0.076187   120.305018
	   51 B(9,10,13)      =    120.257464    -0.000015    -0.093144   120.164320
	   52 B(10,9,17)      =    119.802295    -0.000004    -0.053277   119.749019
	   53 B(10,11,12)     =    120.160334    -0.000002    -0.019195   120.141139
	   54 B(10,11,20)     =    119.582939     0.000003     0.048685   119.631624
	   55 B(10,13,14)     =     99.150562    -0.000028    -0.085582    99.064980
	   56 B(11,10,13)     =    119.487908     0.000001     0.016917   119.504825
	   57 B(12,1,19)      =    118.558513    -0.000015    -0.098516   118.459998
	   58 B(12,11,20)     =    120.249704    -0.000001    -0.026502   120.223202
	   59 B(13,14,21)     =    110.986851     0.000005     0.053776   111.040627
	   60 B(13,14,22)     =    111.014588     0.000001     0.027232   111.041820
	   61 B(13,14,23)     =    106.541885     0.000003     0.047828   106.589713
	   62 B(21,14,22)     =    110.109269    -0.000002    -0.020084   110.089185
	   63 B(21,14,23)     =    109.058869    -0.000004    -0.056557   109.002313
	   64 B(22,14,23)     =    109.029995    -0.000004    -0.054085   108.975911
	   65 D(1,2,3,4)      =    157.981216    -0.000003    -0.220573   157.760643
	   66 D(1,2,3,5)      =    -85.109272    -0.000002    -0.160568   -85.269839
	   67 D(1,2,3,6)      =     31.078278    -0.000001    -0.081211    30.997067
	   68 D(1,12,7,6)     =      1.323198     0.000000    -0.112638     1.210560
	   69 D(1,12,7,8)     =   -177.338846     0.000000    -0.134531  -177.473377
	   70 D(1,12,11,10)   =    177.615006     0.000001     0.307583   177.922589
	   71 D(1,12,11,20)   =     -1.416945     0.000000     0.072948    -1.343998
	   72 D(2,1,12,7)     =     -4.303305    -0.000001    -0.100420    -4.403724
	   73 D(2,1,12,11)    =    177.768271    -0.000001    -0.252244   177.516028
	   74 D(2,3,6,7)      =    -33.770749     0.000002    -0.080379   -33.851128
	   75 D(2,3,6,16)     =    149.626274    -0.000002    -0.411758   149.214516
	   76 D(3,2,1,12)     =    -12.580396     0.000001     0.193933   -12.386463
	   77 D(3,2,1,19)     =    174.059688     0.000003     0.515523   174.575212
	   78 D(3,6,7,8)      =   -163.535102    -0.000000     0.212425  -163.322677
	   79 D(3,6,7,12)     =     17.813423    -0.000000     0.189827    18.003251
	   80 D(4,3,2,15)     =    -25.935191     0.000001     0.272464   -25.662727
	   81 D(4,3,6,7)      =   -160.137030     0.000004     0.087453  -160.049577
	   82 D(4,3,6,16)     =     23.259993     0.000001    -0.243926    23.016067
	   83 D(5,3,2,15)     =     90.974321     0.000003     0.332469    91.306791
	   84 D(5,3,6,7)      =     82.548485     0.000001    -0.017226    82.531259
	   85 D(5,3,6,16)     =    -94.054492    -0.000002    -0.348605   -94.403097
	   86 D(6,3,2,15)     =   -152.838129     0.000003     0.411826  -152.426303
	   87 D(6,7,8,9)      =   -179.452277    -0.000002    -0.272224  -179.724501
	   88 D(6,7,8,18)     =      0.819691     0.000000     0.061383     0.881073
	   89 D(6,7,12,11)    =    179.245941     0.000000     0.038491   179.284432
	   90 D(7,8,9,10)     =      0.749668     0.000002     0.305590     1.055258
	   91 D(7,8,9,17)     =   -179.549046     0.000001     0.237905  -179.311140
	   92 D(7,12,1,19)    =    168.834843    -0.000002    -0.420590   168.414253
	   93 D(7,12,11,10)   =     -0.337831     0.000001     0.155062    -0.182769
	   94 D(7,12,11,20)   =   -179.369783    -0.000001    -0.079573  -179.449356
	   95 D(8,7,6,16)     =     12.880777     0.000003     0.560462    13.441239
	   96 D(8,7,12,11)    =      0.583897     0.000000     0.016599     0.600495
	   97 D(8,9,10,11)    =     -0.495137    -0.000001    -0.131573    -0.626710
	   98 D(8,9,10,13)    =   -178.638326    -0.000001    -0.130442  -178.768768
	   99 D(9,8,7,12)     =     -0.796149    -0.000002    -0.249811    -1.045960
	  100 D(9,10,11,12)   =      0.293232    -0.000001    -0.098436     0.194796
	  101 D(9,10,11,20)   =    179.331645     0.000001     0.134084   179.465729
	  102 *D(9,10,13,14)  =     94.056674    -0.000000    -0.000000    94.056674
	  103 D(10,9,8,18)    =   -179.529613    -0.000000    -0.038203  -179.567816
	  104 *D(10,13,14,21) =    -65.585169    -0.000000     0.000000   -65.585169
	  105 D(10,13,14,22)  =     57.223763     0.000000     0.031368    57.255131
	  106 D(10,13,14,23)  =    175.809523    -0.000000     0.009894   175.819416
	  107 D(11,10,9,17)   =    179.801081    -0.000000    -0.065123   179.735958
	  108 *D(11,10,13,14) =    -84.100252     0.000000     0.000000   -84.100252
	  109 D(11,12,1,19)   =     -9.093581    -0.000002    -0.572414    -9.665995
	  110 D(12,1,2,15)    =    171.389600    -0.000003    -0.308679   171.080921
	  111 D(12,7,6,16)    =   -165.770698     0.000003     0.537864  -165.232834
	  112 D(12,7,8,18)    =    179.475818     0.000000     0.083796   179.559615
	  113 D(12,11,10,13)  =    178.450696    -0.000001    -0.101614   178.349082
	  114 D(13,10,9,17)   =      1.657892    -0.000000    -0.063991     1.593901
	  115 D(13,10,11,20)  =     -2.510891     0.000000     0.130907    -2.379985
	  116 D(15,2,1,19)    =     -1.970316    -0.000002     0.012911    -1.957404
	  117 D(17,9,8,18)    =      0.171673    -0.000001    -0.105888     0.065785
	 ---------------------------------------------------------------------------
	Successfully symmetrized geometry.

  ==> Convergence Check <==

  Measures of convergence in internal coordinates in au.
  Criteria marked as inactive (o), active & met (*), and active & unmet ( ).
  ---------------------------------------------------------------------------------------------
   Step     Total Energy     Delta E     MAX Force     RMS Force      MAX Disp      RMS Disp   
  ---------------------------------------------------------------------------------------------
    Convergence Criteria             o    2.50e-03 *    1.70e-03 *    1.00e-02 *    6.70e-03 *
  ---------------------------------------------------------------------------------------------
      8   -1188.12034069   -2.74e-05 o    9.94e-04 *    1.94e-04 *    9.99e-03 *    2.96e-03 *  ~
  ---------------------------------------------------------------------------------------------


  **** Optimization is complete! (in 8 steps) ****

  ==> Optimization Summary <==

  Measures of convergence in internal coordinates in au.
  --------------------------------------------------------------------------------------------------------------- ~
   Step         Total Energy             Delta E       MAX Force       RMS Force        MAX Disp        RMS Disp  ~
  --------------------------------------------------------------------------------------------------------------- ~
      1   -1188.119273970659  -1188.119273970659      0.00845841      0.00097206      0.07865353      0.01846193  ~
      2   -1188.119433995836     -0.000160025177      0.00279381      0.00047841      0.07410418      0.01849348  ~
      3   -1188.119628377592     -0.000194381756      0.00754556      0.00084901      0.07450384      0.01849105  ~
      4   -1188.119819477993     -0.000191100402      0.00609941      0.00069175      0.06418340      0.01849260  ~
      5   -1188.120033439374     -0.000213961380      0.00173569      0.00040100      0.06125740      0.01849389  ~
      6   -1188.120199226475     -0.000165787101      0.00092566      0.00025929      0.06020009      0.01849370  ~
      7   -1188.120313292154     -0.000114065679      0.00065842      0.00013617      0.06107675      0.01849481  ~
      8   -1188.120340693160     -0.000027401006      0.00099393      0.00019358      0.00999051      0.00295684  ~
  --------------------------------------------------------------------------------------------------------------- ~

	Writing optimization data to binary file.
	Final energy is  -1188.1203406931597
	Final (previous) structure:
	Cartesian Geometry (in Angstrom)
	    N    -0.7784638016  -1.5638683019   0.1943771342
	    C    -2.0765704257  -1.3790897675   0.5921495308
	    C    -2.4396535218   0.0934939043   0.8812322090
	    F    -3.7584003494   0.2659088313   0.7913689874
	    F    -2.0582202544   0.3223367280   2.1846162308
	    C    -1.6801984934   1.1461886910   0.0380732762
	    C    -0.2941615007   0.7766951599  -0.2980482157
	    C     0.6075060011   1.7460682009  -0.7445719248
	    C     1.9100924472   1.4038077416  -1.0734588710
	    C     2.3205159062   0.0691482216  -0.9713812390
	    C     1.4281186076  -0.9081280233  -0.5318832049
	    C     0.1192718028  -0.5622112821  -0.1972031989
	    S     4.0057657159  -0.3869814723  -1.3558860667
	    C     4.7169402466  -0.3086356687   0.3205022188
	    O    -2.8541907590  -2.2850944966   0.7762511113
	    O    -2.2052050524   2.1986330637  -0.2399556068
	    H     2.6110710667   2.1590439393  -1.4131049362
	    H     0.2628626857   2.7726088986  -0.8225662402
	    H    -0.4985666703  -2.5318622195   0.0921735715
	    H     1.7546308425  -1.9426958147  -0.4669974791
	    H     4.7056109879   0.7145085165   0.7028478820
	    H     4.1816354214  -0.9711060218   1.0044618651
	    H     5.7529126977  -0.6462755170   0.2351266000
	Saving final (previous) structure.
			--------------------------
			 OPTKING Finished Execution 
			--------------------------

    Final optimized geometry and variables:
    Molecular point group: c1
    Full point group: C1

    Geometry (in Angstrom), charge = 0, multiplicity = 1:

    N           -0.778463804683    -1.563868308038     0.194377134934
    C           -2.076570433900    -1.379089772934     0.592149533122
    C           -2.439653531433     0.093493904628     0.881232212425
    F           -3.758400364170     0.265908832359     0.791368990520
    F           -2.058220262501     0.322336729295     2.184616239356
    C           -1.680198500046     1.146188695518     0.038073276327
    C           -0.294161501827     0.776695162984    -0.298048216836
    C            0.607506003511     1.746068207714    -0.744571927745
    C            1.910092454736     1.403807747133    -1.073458875213
    C            2.320515915330     0.069148221847    -0.971381242789
    C            1.428118613185    -0.908128026901    -0.531883206993
    C            0.119271803286    -0.562211284279    -0.197203199714
    S            4.005765731631    -0.386981473870    -1.355886072033
    C            4.716940265154    -0.308635669909     0.320502220081
    O           -2.854190770225    -2.285094505589     0.776251114351
    O           -2.205205061092     2.198633072332    -0.239955607718
    H            2.611071076950     2.159043947753    -1.413104941785
    H            0.262862686764     2.772608909479    -0.822566243448
    H           -0.498566672233    -2.531862229479     0.092173571907
    H            1.754630849443    -1.942695822367    -0.466997480926
    H            4.705611006357     0.714508519278     0.702847884716
    H            4.181635437886    -0.971106025593     1.004461869005
    H            5.752912720321    -0.646275519498     0.235126600905

	Removing binary optimization data file.
	Cleaning optimization helper files.

    Psi4 stopped on: Monday, 21 June 2021 11:24PM
    Psi4 wall time for execution: 0:22:13.99

*** Psi4 exiting successfully. Buy a developer a beer!
