
    -----------------------------------------------------------------------
          Psi4: An Open-Source Ab Initio Electronic Structure Package
                               Psi4 1.3.2 release

                         Git: Rev {HEAD} ecbda83 


    R. M. Parrish, L. A. Burns, D. G. A. Smith, A. C. Simmonett,
    A. E. DePrince III, E. G. Hohenstein, U. Bozkaya, A. Yu. Sokolov,
    R. Di Remigio, R. M. Richard, J. F. Gonthier, A. M. James,
    H. R. McAlexander, A. Kumar, M. Saitow, X. Wang, B. P. Pritchard,
    P. Verma, H. F. Schaefer III, K. Patkowski, R. A. King, E. F. Valeev,
    F. A. Evangelista, J. M. Turney, T. D. Crawford, and C. D. Sherrill,
    J. Chem. Theory Comput. 13(7) pp 3185--3197 (2017).
    (doi: 10.1021/acs.jctc.7b00174)


                         Additional Contributions by
    P. Kraus, H. Kruse, M. H. Lechner, M. C. Schieber, R. A. Shaw,
    A. Alenaizan, R. Galvelis, Z. L. Glick, S. Lehtola, and J. P. Misiewicz

    -----------------------------------------------------------------------


    Psi4 started on: Tuesday, 22 June 2021 07:31AM

    Process ID: 31916
    Host:       cpu-spot-dy-c5n2xlarge-1
    PSIDATADIR: /fsx/users/francis/anaconda3/envs/poltype-dev/share/psi4
    Memory:     500.0 MiB
    Threads:    1
    
  ==> Input File <==

--------------------------------------------------------------------------
molecule { 
0 1
 N   -0.964836   -1.523397    0.244584
 C   -2.253765   -1.197601    0.573937
 C   -2.591421    0.312264    0.559861
 F   -3.428437    0.520003   -0.493521
 F   -3.262025    0.594052    1.695565
 C   -1.415422    1.314357    0.407402
 C   -0.106414    0.751425    0.064641
 C    0.979028    1.597944   -0.184066
 C    2.225638    1.096636   -0.511218
 C    2.410031   -0.293170   -0.596865
 C    1.338073   -1.152317   -0.333485
 C    0.085868   -0.638639   -0.014244
 S    3.947688   -1.065868   -0.971937
 C    5.108938    0.317777   -1.056740
 O   -3.096447   -2.025908    0.829652
 O   -1.642790    2.494710    0.554668
 H    3.041617    1.782474   -0.704251
 H    0.814947    2.668974   -0.114701
 H   -0.774553   -2.518158    0.224427
 H    1.484058   -2.228826   -0.379064
 H    4.889152    0.983521   -1.895011
 H    5.133275    0.878046   -0.118741
 H    6.089745   -0.134801   -1.219491
}
memory 16GB
set_num_threads(8)
psi4_io.set_default_path("/scratch/Psi4-ligand")
set freeze_core True
E, wfn = energy('wb97x-d/6-311++g**',return_wfn=True)
oeprop(wfn,"WIBERG_LOWDIN_INDICES")
clean()
--------------------------------------------------------------------------

  Memory set to  14.901 GiB by Python driver.
  Threads set to 8 by Python driver.

*** tstart() called on cpu-spot-dy-c5n2xlarge-1
*** at Tue Jun 22 07:31:02 2021

   => Loading Basis Set <=

    Name: 6-311++G**
    Role: ORBITAL
    Keyword: BASIS
    atoms 1             entry N          line   140 file /fsx/users/francis/anaconda3/envs/poltype-dev/share/psi4/basis/6-311ppgss.gbs 
    atoms 2-3, 6-12, 14 entry C          line   119 file /fsx/users/francis/anaconda3/envs/poltype-dev/share/psi4/basis/6-311ppgss.gbs 
    atoms 4-5           entry F          line   182 file /fsx/users/francis/anaconda3/envs/poltype-dev/share/psi4/basis/6-311ppgss.gbs 
    atoms 13            entry S          line   419 file /fsx/users/francis/anaconda3/envs/poltype-dev/share/psi4/basis/6-311ppgss.gbs 
    atoms 15-16         entry O          line   161 file /fsx/users/francis/anaconda3/envs/poltype-dev/share/psi4/basis/6-311ppgss.gbs 
    atoms 17-23         entry H          line    42 file /fsx/users/francis/anaconda3/envs/poltype-dev/share/psi4/basis/6-311ppgss.gbs 


         ---------------------------------------------------------
                                   SCF
               by Justin Turney, Rob Parrish, Andy Simmonett
                          and Daniel G. A. Smith
                              RKS Reference
                        8 Threads,  15258 MiB Core
         ---------------------------------------------------------

  ==> Geometry <==

    Molecular point group: c1
    Full point group: C1

    Geometry (in Angstrom), charge = 0, multiplicity = 1:

       Center              X                  Y                   Z               Mass       
    ------------   -----------------  -----------------  -----------------  -----------------
         N           -0.964836012775    -1.523397028526     0.244583954518    14.003074004430
         C           -2.253765012775    -1.197601028526     0.573936954518    12.000000000000
         C           -2.591421012775     0.312263971474     0.559860954518    12.000000000000
         F           -3.428437012775     0.520002971474    -0.493521045482    18.998403162730
         F           -3.262025012775     0.594051971474     1.695564954518    18.998403162730
         C           -1.415422012775     1.314356971474     0.407401954518    12.000000000000
         C           -0.106414012775     0.751424971474     0.064640954518    12.000000000000
         C            0.979027987225     1.597943971474    -0.184066045482    12.000000000000
         C            2.225637987225     1.096635971474    -0.511218045482    12.000000000000
         C            2.410030987225    -0.293170028526    -0.596865045482    12.000000000000
         C            1.338072987225    -1.152317028526    -0.333485045482    12.000000000000
         C            0.085867987225    -0.638639028526    -0.014244045482    12.000000000000
         S            3.947687987225    -1.065868028526    -0.971937045482    31.972071174400
         C            5.108937987225     0.317776971474    -1.056740045482    12.000000000000
         O           -3.096447012775    -2.025908028526     0.829651954518    15.994914619570
         O           -1.642790012775     2.494709971474     0.554667954518    15.994914619570
         H            3.041616987225     1.782473971474    -0.704251045482     1.007825032230
         H            0.814946987225     2.668973971474    -0.114701045482     1.007825032230
         H           -0.774553012775    -2.518158028526     0.224426954518     1.007825032230
         H            1.484057987225    -2.228826028526    -0.379064045482     1.007825032230
         H            4.889151987225     0.983520971474    -1.895011045482     1.007825032230
         H            5.133274987225     0.878045971474    -0.118741045482     1.007825032230
         H            6.089744987225    -0.134801028526    -1.219491045482     1.007825032230

  Running in c1 symmetry.

  Rotational constants: A =      0.03958  B =      0.00832  C =      0.00716 [cm^-1]
  Rotational constants: A =   1186.71595  B =    249.47645  C =    214.63992 [MHz]
  Nuclear repulsion = 1188.933472723104387

  Charge       = 0
  Multiplicity = 1
  Electrons    = 124
  Nalpha       = 62
  Nbeta        = 62

  ==> Algorithm <==

  SCF Algorithm Type is DF.
  DIIS enabled.
  MOM disabled.
  Fractional occupation disabled.
  Guess Type is SAD.
  Energy threshold   = 1.00e-06
  Density threshold  = 1.00e-06
  Integral threshold = 0.00e+00

  ==> Primary Basis <==

  Basis Set: 6-311++G**
    Blend: 6-311++G**
    Number of shells: 199
    Number of basis function: 409
    Number of Cartesian functions: 425
    Spherical Harmonics?: true
    Max angular momentum: 2

  ==> DFT Potential <==

   => Composite Functional: WB97X-D <= 

    wB97X-D Hyb-GGA Exchange-Correlation Functional

    J.-D. Chai and M. Head-Gordon, Phys. Chem. Chem. Phys. 10, 6615 (2008)

    Deriv               =              1
    GGA                 =           TRUE
    Meta                =          FALSE

    Exchange Hybrid     =           TRUE
    MP2 Hybrid          =          FALSE

   => Exchange-Correlation Functionals <=

    1.0000   wB97D range-separated functional

   => Exact (HF) Exchange <=

    0.7780            HF,LR [omega = 0.2000]
    0.2220               HF 

   => Molecular Quadrature <=

    Radial Scheme          =       TREUTLER
    Pruning Scheme         =           FLAT
    Nuclear Scheme         =       TREUTLER

    BS radius alpha        =              1
    Pruning alpha          =              1
    Radial Points          =             75
    Spherical Points       =            302
    Total Points           =         520865
    Total Blocks           =           3845
    Max Points             =            256
    Max Functions          =            323

   => WB97X-D: Empirical Dispersion <=

    Chai and Head-Gordon Dispersion Correction
    Chai, J.-D.; Head-Gordon, M. (2010), J. Chem. Phys., 132: 6615-6620

        s6 =       1.000000

   => Loading Basis Set <=

    Name: (6-311++G** AUX)
    Role: JKFIT
    Keyword: DF_BASIS_SCF
    atoms 1             entry N          line   224 file /fsx/users/francis/anaconda3/envs/poltype-dev/share/psi4/basis/aug-cc-pvtz-jkfit.gbs 
    atoms 2-3, 6-12, 14 entry C          line   162 file /fsx/users/francis/anaconda3/envs/poltype-dev/share/psi4/basis/aug-cc-pvtz-jkfit.gbs 
    atoms 4-5           entry F          line   348 file /fsx/users/francis/anaconda3/envs/poltype-dev/share/psi4/basis/aug-cc-pvtz-jkfit.gbs 
    atoms 13            entry S          line   730 file /fsx/users/francis/anaconda3/envs/poltype-dev/share/psi4/basis/aug-cc-pvtz-jkfit.gbs 
    atoms 15-16         entry O          line   286 file /fsx/users/francis/anaconda3/envs/poltype-dev/share/psi4/basis/aug-cc-pvtz-jkfit.gbs 
    atoms 17-23         entry H          line    70 file /fsx/users/francis/anaconda3/envs/poltype-dev/share/psi4/basis/aug-cc-pvtz-jkfit.gbs 

  ==> Pre-Iterations <==

   -------------------------------------------------------
    Irrep   Nso     Nmo     Nalpha   Nbeta   Ndocc  Nsocc
   -------------------------------------------------------
     A        409     409       0       0       0       0
   -------------------------------------------------------
    Total     409     409      62      62      62       0
   -------------------------------------------------------

  ==> Integral Setup <==

  ==> DiskDFJK: Density-Fitted J/K Matrices <==

    J tasked:                  Yes
    K tasked:                  Yes
    wK tasked:                 Yes
    Omega:               2.000E-01
    OpenMP threads:              8
    Integrals threads:           8
    Memory [MiB]:             7966
    Algorithm:                Core
    Integral Cache:           NONE
    Schwarz Cutoff:          1E-12
    Fitting Condition:       1E-10

   => Auxiliary Basis Set <=

  Basis Set: (6-311++G** AUX)
    Blend: AUG-CC-PVTZ-JKFIT
    Number of shells: 590
    Number of basis function: 2028
    Number of Cartesian functions: 2530
    Spherical Harmonics?: true
    Max angular momentum: 4

  Cached 100.0% of DFT collocation blocks in 3.396 [GiB].

  Minimum eigenvalue in the overlap matrix is 2.3709377583E-07.
  Using Symmetric Orthogonalization.

  SCF Guess: Superposition of Atomic Densities via on-the-fly atomic UHF.

  ==> Iterations <==

                           Total Energy        Delta E     RMS |[F,P]|

   @DF-RKS iter SAD: -1187.92723195837152   -1.18793e+03   0.00000e+00 
   @DF-RKS iter   1: -1187.71082056642422    2.16411e-01   2.91210e-03 DIIS
   @DF-RKS iter   2: -1187.75922291785696   -4.84024e-02   2.98035e-03 DIIS
   @DF-RKS iter   3: -1188.30575914845031   -5.46536e-01   6.54679e-04 DIIS
   @DF-RKS iter   4: -1188.32968982547641   -2.39307e-02   2.39366e-04 DIIS
   @DF-RKS iter   5: -1188.33375261176116   -4.06279e-03   6.23535e-05 DIIS
   @DF-RKS iter   6: -1188.33418629633206   -4.33685e-04   1.87237e-05 DIIS
   @DF-RKS iter   7: -1188.33424207820963   -5.57819e-05   7.97232e-06 DIIS
   @DF-RKS iter   8: -1188.33425834217223   -1.62640e-05   3.28956e-06 DIIS
   @DF-RKS iter   9: -1188.33426141614814   -3.07398e-06   1.48337e-06 DIIS
   @DF-RKS iter  10: -1188.33426175687100   -3.40723e-07   5.83477e-07 DIIS
  Energy and wave function converged.


  ==> Post-Iterations <==

    Orbital Energies [Eh]
    ---------------------

    Doubly Occupied:                                                      

       1A    -89.054095     2A    -24.840029     3A    -24.838194  
       4A    -19.269330     5A    -19.260422     6A    -14.516809  
       7A    -10.484651     8A    -10.436372     9A    -10.411108  
      10A    -10.390893    11A    -10.371912    12A    -10.341796  
      13A    -10.334676    14A    -10.331306    15A    -10.330848  
      16A    -10.324366    17A     -8.094750    18A     -6.044201  
      19A     -6.039798    20A     -6.033924    21A     -1.389580  
      22A     -1.328099    23A     -1.192389    24A     -1.180185  
      25A     -1.098470    26A     -1.006823    27A     -0.945389  
      28A     -0.907044    29A     -0.888622    30A     -0.868689  
      31A     -0.800198    32A     -0.765791    33A     -0.753615  
      34A     -0.745774    35A     -0.697462    36A     -0.684013  
      37A     -0.670118    38A     -0.646877    39A     -0.630306  
      40A     -0.593166    41A     -0.588281    42A     -0.569422  
      43A     -0.563926    44A     -0.558123    45A     -0.557209  
      46A     -0.553879    47A     -0.550064    48A     -0.535198  
      49A     -0.519826    50A     -0.516052    51A     -0.508439  
      52A     -0.498783    53A     -0.491042    54A     -0.488269  
      55A     -0.475662    56A     -0.443614    57A     -0.434802  
      58A     -0.399229    59A     -0.395415    60A     -0.364181  
      61A     -0.341794    62A     -0.320376  

    Virtual:                                                              

      63A     -0.043474    64A      0.012859    65A      0.025349  
      66A      0.033371    67A      0.044950    68A      0.053397  
      69A      0.061781    70A      0.064405    71A      0.071259  
      72A      0.072155    73A      0.075990    74A      0.087092  
      75A      0.097818    76A      0.099612    77A      0.103897  
      78A      0.105035    79A      0.108326    80A      0.120704  
      81A      0.126528    82A      0.129657    83A      0.133558  
      84A      0.135174    85A      0.142023    86A      0.149252  
      87A      0.151424    88A      0.158442    89A      0.162971  
      90A      0.164538    91A      0.169793    92A      0.172672  
      93A      0.175399    94A      0.176959    95A      0.183054  
      96A      0.184547    97A      0.192368    98A      0.196125  
      99A      0.197837   100A      0.205364   101A      0.206000  
     102A      0.208662   103A      0.213671   104A      0.215019  
     105A      0.218185   106A      0.228073   107A      0.229770  
     108A      0.235026   109A      0.238646   110A      0.247532  
     111A      0.251517   112A      0.255676   113A      0.263417  
     114A      0.263995   115A      0.271314   116A      0.276244  
     117A      0.278541   118A      0.286342   119A      0.288298  
     120A      0.290717   121A      0.297596   122A      0.305489  
     123A      0.308165   124A      0.314698   125A      0.316591  
     126A      0.322476   127A      0.327945   128A      0.333884  
     129A      0.336455   130A      0.344407   131A      0.347564  
     132A      0.352632   133A      0.359996   134A      0.364685  
     135A      0.371807   136A      0.373599   137A      0.377781  
     138A      0.379925   139A      0.387126   140A      0.389444  
     141A      0.400272   142A      0.402965   143A      0.413228  
     144A      0.413839   145A      0.424010   146A      0.427680  
     147A      0.436213   148A      0.439256   149A      0.449431  
     150A      0.450402   151A      0.466017   152A      0.469378  
     153A      0.472642   154A      0.481412   155A      0.483640  
     156A      0.503334   157A      0.510512   158A      0.526698  
     159A      0.537510   160A      0.543481   161A      0.547183  
     162A      0.562597   163A      0.572436   164A      0.586696  
     165A      0.599088   166A      0.605790   167A      0.614419  
     168A      0.623946   169A      0.636803   170A      0.638422  
     171A      0.646829   172A      0.656428   173A      0.659394  
     174A      0.670443   175A      0.677724   176A      0.697418  
     177A      0.700117   178A      0.704672   179A      0.718570  
     180A      0.735620   181A      0.744571   182A      0.752856  
     183A      0.754437   184A      0.763887   185A      0.768452  
     186A      0.770794   187A      0.787794   188A      0.789059  
     189A      0.804178   190A      0.817901   191A      0.826668  
     192A      0.844541   193A      0.847506   194A      0.859590  
     195A      0.871133   196A      0.877405   197A      0.885547  
     198A      0.902508   199A      0.916798   200A      0.928808  
     201A      0.938532   202A      0.947899   203A      0.954383  
     204A      0.970545   205A      0.973439   206A      0.986806  
     207A      0.997840   208A      1.008563   209A      1.012534  
     210A      1.033912   211A      1.045941   212A      1.052469  
     213A      1.059534   214A      1.079077   215A      1.097824  
     216A      1.111175   217A      1.114057   218A      1.132972  
     219A      1.149907   220A      1.158542   221A      1.171223  
     222A      1.178346   223A      1.191290   224A      1.206462  
     225A      1.218180   226A      1.224049   227A      1.240773  
     228A      1.260934   229A      1.269172   230A      1.291345  
     231A      1.295454   232A      1.318117   233A      1.321888  
     234A      1.334419   235A      1.361827   236A      1.389174  
     237A      1.410019   238A      1.469010   239A      1.483064  
     240A      1.492691   241A      1.496653   242A      1.501713  
     243A      1.526670   244A      1.544335   245A      1.553895  
     246A      1.567333   247A      1.580129   248A      1.589075  
     249A      1.599043   250A      1.606874   251A      1.612316  
     252A      1.619808   253A      1.637983   254A      1.641990  
     255A      1.657738   256A      1.669123   257A      1.672731  
     258A      1.697387   259A      1.702264   260A      1.706256  
     261A      1.723460   262A      1.770684   263A      1.771538  
     264A      1.785330   265A      1.797407   266A      1.806502  
     267A      1.817470   268A      1.829910   269A      1.857408  
     270A      1.860171   271A      1.876987   272A      1.892642  
     273A      1.914844   274A      1.932007   275A      1.946737  
     276A      1.952735   277A      1.993148   278A      1.997273  
     279A      2.003475   280A      2.019467   281A      2.029679  
     282A      2.039851   283A      2.059751   284A      2.067555  
     285A      2.082754   286A      2.085230   287A      2.092655  
     288A      2.125876   289A      2.160863   290A      2.175879  
     291A      2.196158   292A      2.209116   293A      2.226042  
     294A      2.243563   295A      2.258578   296A      2.302439  
     297A      2.314011   298A      2.324186   299A      2.338256  
     300A      2.360219   301A      2.426753   302A      2.480773  
     303A      2.515889   304A      2.522144   305A      2.539446  
     306A      2.549818   307A      2.573095   308A      2.596780  
     309A      2.613072   310A      2.639838   311A      2.669998  
     312A      2.722823   313A      2.748914   314A      2.780887  
     315A      2.787296   316A      2.791687   317A      2.806932  
     318A      2.827992   319A      2.839923   320A      2.841989  
     321A      2.860235   322A      2.887206   323A      2.904021  
     324A      2.911904   325A      2.927681   326A      2.940387  
     327A      2.970627   328A      2.974217   329A      3.005743  
     330A      3.040172   331A      3.051807   332A      3.058188  
     333A      3.086048   334A      3.095182   335A      3.107535  
     336A      3.132521   337A      3.164348   338A      3.202279  
     339A      3.296019   340A      3.300536   341A      3.333982  
     342A      3.364916   343A      3.412512   344A      3.429081  
     345A      3.432860   346A      3.492538   347A      3.535194  
     348A      3.544793   349A      3.603190   350A      3.633276  
     351A      3.653427   352A      3.690087   353A      3.708474  
     354A      3.781051   355A      3.804395   356A      3.810088  
     357A      3.848414   358A      3.852920   359A      3.859095  
     360A      3.902614   361A      3.920021   362A      3.952595  
     363A      3.975180   364A      4.007738   365A      4.027893  
     366A      4.078705   367A      4.123323   368A      4.193268  
     369A      4.246294   370A      4.301459   371A      4.368526  
     372A      4.527789   373A      4.825039   374A      4.892488  
     375A      4.916225   376A      5.016385   377A      5.151449  
     378A      5.158633   379A      5.208244   380A      5.329512  
     381A      5.339588   382A      5.839333   383A      5.884397  
     384A      6.450496   385A      6.483241   386A      6.525983  
     387A      6.572797   388A      6.664876   389A      6.876412  
     390A      8.097030   391A     17.434652   392A     17.624053  
     393A     17.659339   394A     23.634592   395A     23.746752  
     396A     23.970660   397A     24.003575   398A     24.017875  
     399A     24.035925   400A     24.038223   401A     24.134906  
     402A     24.192054   403A     24.277745   404A     35.758547  
     405A     50.141738   406A     50.161424   407A     66.896501  
     408A     66.972765   409A    189.359900  

    Final Occupation by Irrep:
              A 
    DOCC [    62 ]

  @DF-RKS Final Energy: -1188.33426175687100

   => Energetics <=

    Nuclear Repulsion Energy =           1188.9334727231043871
    One-Electron Energy =               -3992.8299920660683711
    Two-Electron Energy =                1705.3165491254819699
    DFT Exchange-Correlation Energy =     -89.7405517923440073
    Empirical Dispersion Energy =          -0.0137397470450663
    VV10 Nonlocal Energy =                  0.0000000000000000
    Total Energy =                      -1188.3342617568710011

Computation Completed


Properties will be evaluated at   0.000000,   0.000000,   0.000000 [a0]

Properties computed using the SCF density matrix

  Nuclear Dipole Moment: [e a0]
     X:    25.7809      Y:     0.2693      Z:    -5.0974

  Electronic Dipole Moment: [e a0]
     X:   -22.5876      Y:    -0.6320      Z:     4.4217

  Dipole Moment: [e a0]
     X:     3.1933      Y:    -0.3626      Z:    -0.6758     Total:     3.2841

  Dipole Moment: [D]
     X:     8.1165      Y:    -0.9217      Z:    -1.7176     Total:     8.3473


*** tstop() called on cpu-spot-dy-c5n2xlarge-1 at Tue Jun 22 07:32:31 2021
Module time:
	user time   =     643.65 seconds =      10.73 minutes
	system time =      10.47 seconds =       0.17 minutes
	total time  =         89 seconds =       1.48 minutes
Total time:
	user time   =     643.65 seconds =      10.73 minutes
	system time =      10.47 seconds =       0.17 minutes
	total time  =         89 seconds =       1.48 minutes


Properties will be evaluated at   0.000000,   0.000000,   0.000000 [a0]
OEProp: No title given, name of density matrix used for the following properties is 'SCF density'


  Wiberg Bond Indices using Orthogonal Lowdin Orbitals:

  Irrep: 1 Size: 23 x 23

                 1                   2                   3                   4                   5

    1     0.00000000000000     1.31963102516477     0.10130944166972     0.01513263055891     0.01198239431451
    2     1.31963102516477     0.00000000000000     0.88412441007111     0.11123655798515     0.10994337719821
    3     0.10130944166972     0.88412441007111     0.00000000000000     1.34569013331814     1.37567368124113
    4     0.01513263055891     0.11123655798515     1.34569013331814     0.00000000000000     0.13784698468690
    5     0.01198239431451     0.10994337719821     1.37567368124113     0.13784698468690     0.00000000000000
    6     0.03395696004673     0.07420868350349     0.89713446515078     0.11090341606803     0.10699196252568
    7     0.11660946158286     0.03556699349517     0.09974013022543     0.01503896194420     0.01240525669487
    8     0.01507329083648     0.00372920273352     0.01348152005549     0.00212108473954     0.00198047808565
    9     0.01442473069134     0.00534392687597     0.00254024178725     0.00039373630528     0.00038763493289
   10     0.01736211892498     0.00307552031275     0.00150206926189     0.00059472975447     0.00034312810067
   11     0.13409837577936     0.02680718687268     0.00435338343771     0.00071720223998     0.00051399561341
   12     1.18964110083115     0.09719714829447     0.03134084522724     0.00568070704447     0.00389262680837
   13     0.00285797136481     0.00103615010316     0.00069586367113     0.00038211184258     0.00020838019753
   14     0.00045267241621     0.00016568628345     0.00009513766641     0.00002132333751     0.00001751413811
   15     0.24777640154159     2.29187245435936     0.15073412613529     0.03584882208464     0.04230453125273
   16     0.00481050890378     0.01590987091976     0.15979299763347     0.03968646112634     0.04493180486979
   17     0.00070649120365     0.00022017328622     0.00047919520718     0.00005786353302     0.00007256356642
   18     0.00129054955593     0.00048847438125     0.00211153712588     0.00028845787793     0.00035352250132
   19     0.91339566177248     0.07317417393905     0.01372938685695     0.00158999451332     0.00183524208687
   20     0.02334217990440     0.00231974847821     0.00073135913194     0.00010441539257     0.00011816246879
   21     0.00008596182815     0.00003794970687     0.00003511347485     0.00001191365910     0.00000649882887
   22     0.00010439210524     0.00004311568689     0.00003477780629     0.00000979179494     0.00000819067050
   23     0.00007047894064     0.00002483698820     0.00001554952422     0.00000229360721     0.00000189700542

                 6                   7                   8                   9                  10

    1     0.03395696004673     0.11660946158286     0.01507329083648     0.01442473069134     0.01736211892498
    2     0.07420868350349     0.03556699349517     0.00372920273352     0.00534392687597     0.00307552031275
    3     0.89713446515078     0.09974013022543     0.01348152005549     0.00254024178725     0.00150206926189
    4     0.11090341606803     0.01503896194420     0.00212108473954     0.00039373630528     0.00059472975447
    5     0.10699196252568     0.01240525669487     0.00198047808565     0.00038763493289     0.00034312810067
    6     0.00000000000000     1.06803635437983     0.12121925618889     0.02052462169435     0.01514362719617
    7     1.06803635437983     0.00000000000000     1.34193063882064     0.13188550296937     0.10754484762003
    8     0.12121925618889     1.34193063882064     0.00000000000000     1.50421439416678     0.13589659956929
    9     0.02052462169435     0.13188550296937     1.50421439416678     0.00000000000000     1.37201299627915
   10     0.01514362719617     0.10754484762003     0.13589659956929     1.37201299627915     0.00000000000000
   11     0.01584059069150     0.11959155094308     0.12144641135537     0.12510800814051     1.41618406212058
   12     0.11438105056416     1.27365612966488     0.12382227000834     0.10731857618721     0.12993615837186
   13     0.00651203462954     0.02191900979035     0.02498047134985     0.14476967055824     1.30938906619941
   14     0.00032880911961     0.00171973986530     0.00471104505888     0.04946342640153     0.08435139123920
   15     0.01539364300986     0.00896303553736     0.00105904125734     0.00454369237353     0.00197559109779
   16     2.31320991270169     0.16591222980167     0.07577907201350     0.00628894704282     0.01628054342442
   17     0.00149908888456     0.01231911204216     0.08300698380279     0.85904726505044     0.07384554129501
   18     0.02026019056752     0.07690855445047     0.85214208183463     0.08065753791989     0.01216498543929
   19     0.00257298529773     0.01257033028315     0.00170869163000     0.00133421149612     0.00198243705989
   20     0.00170028803115     0.01149887187252     0.00556029722869     0.01256477176165     0.07590908029426
   21     0.00019083959601     0.00080256737946     0.00099557983999     0.01372506774745     0.01319127532605
   22     0.00016971394934     0.00081137736214     0.00115613384144     0.01490630485838     0.01510400213757
   23     0.00003029181399     0.00018405114804     0.00034602341623     0.00323062230259     0.01263966644626

                11                  12                  13                  14                  15

    1     0.13409837577936     1.18964110083115     0.00285797136481     0.00045267241621     0.24777640154159
    2     0.02680718687268     0.09719714829447     0.00103615010316     0.00016568628345     2.29187245435936
    3     0.00435338343771     0.03134084522724     0.00069586367113     0.00009513766641     0.15073412613529
    4     0.00071720223998     0.00568070704447     0.00038211184258     0.00002132333751     0.03584882208464
    5     0.00051399561341     0.00389262680837     0.00020838019753     0.00001751413811     0.04230453125273
    6     0.01584059069150     0.11438105056416     0.00651203462954     0.00032880911961     0.01539364300986
    7     0.11959155094308     1.27365612966488     0.02191900979035     0.00171973986530     0.00896303553736
    8     0.12144641135537     0.12382227000834     0.02498047134985     0.00471104505888     0.00105904125734
    9     0.12510800814051     0.10731857618721     0.14476967055824     0.04946342640153     0.00454369237353
   10     1.41618406212058     0.12993615837186     1.30938906619941     0.08435139123920     0.00197559109779
   11     0.00000000000000     1.39143094041178     0.18075066685061     0.01880233940868     0.01253702483496
   12     1.39143094041178     0.00000000000000     0.02578773874288     0.00311884175167     0.03050993882599
   13     0.18075066685061     0.02578773874288     0.00000000000000     1.24437419294102     0.00084912386636
   14     0.01880233940868     0.00311884175167     1.24437419294102     0.00000000000000     0.00009412469414
   15     0.01253702483496     0.03050993882599     0.00084912386636     0.00009412469414     0.00000000000000
   16     0.00481971065305     0.04160386297133     0.00685686697190     0.00026295070713     0.00554510359950
   17     0.01205209310300     0.00518026163335     0.02098841979645     0.02325579651825     0.00016620345345
   18     0.00530461011112     0.01194250645559     0.00217383690739     0.00045548743006     0.00019361701933
   19     0.02032234053780     0.06549528805892     0.00033767140736     0.00006811930720     0.02857678580365
   20     0.85051699924491     0.07801912687626     0.03188804086917     0.00253565824063     0.00067112603143
   21     0.00212591437100     0.00051930975313     0.06474804903132     0.94018802186688     0.00003188800715
   22     0.00215212319743     0.00059108079246     0.06299502820942     0.93866896232562     0.00003753831499
   23     0.00197197696024     0.00043068409310     0.07417667293025     0.94111975051879     0.00001006741436

                16                  17                  18                  19                  20

    1     0.00481050890378     0.00070649120365     0.00129054955593     0.91339566177248     0.02334217990440
    2     0.01590987091976     0.00022017328622     0.00048847438125     0.07317417393905     0.00231974847821
    3     0.15979299763347     0.00047919520718     0.00211153712588     0.01372938685695     0.00073135913194
    4     0.03968646112634     0.00005786353302     0.00028845787793     0.00158999451332     0.00010441539257
    5     0.04493180486979     0.00007256356642     0.00035352250132     0.00183524208687     0.00011816246879
    6     2.31320991270169     0.00149908888456     0.02026019056752     0.00257298529773     0.00170028803115
    7     0.16591222980167     0.01231911204216     0.07690855445047     0.01257033028315     0.01149887187252
    8     0.07577907201350     0.08300698380279     0.85214208183463     0.00170869163000     0.00556029722869
    9     0.00628894704282     0.85904726505044     0.08065753791989     0.00133421149612     0.01256477176165
   10     0.01628054342442     0.07384554129501     0.01216498543929     0.00198243705989     0.07590908029426
   11     0.00481971065305     0.01205209310300     0.00530461011112     0.02032234053780     0.85051699924491
   12     0.04160386297133     0.00518026163335     0.01194250645559     0.06549528805892     0.07801912687626
   13     0.00685686697190     0.02098841979645     0.00217383690739     0.00033767140736     0.03188804086917
   14     0.00026295070713     0.02325579651825     0.00045548743006     0.00006811930720     0.00253565824063
   15     0.00554510359950     0.00016620345345     0.00019361701933     0.02857678580365     0.00067112603143
   16     0.00000000000000     0.00038807842151     0.02119157498546     0.00051799204970     0.00059942599516
   17     0.00038807842151     0.00000000000000     0.01032840547790     0.00010577270464     0.00117413046121
   18     0.02119157498546     0.01032840547790     0.00000000000000     0.00060887943512     0.00048008094173
   19     0.00051799204970     0.00010577270464     0.00060887943512     0.00000000000000     0.00647711205359
   20     0.00059942599516     0.00117413046121     0.00048008094173     0.00647711205359     0.00000000000000
   21     0.00020652789829     0.00668937559533     0.00008182935668     0.00001220742989     0.00042684422587
   22     0.00019781965277     0.00648757217176     0.00008580830220     0.00001505381091     0.00038560748098
   23     0.00001550810846     0.00146535344490     0.00005473564548     0.00000868868584     0.00029151410794

                21                  22                  23

    1     0.00008596182815     0.00010439210524     0.00007047894064
    2     0.00003794970687     0.00004311568689     0.00002483698820
    3     0.00003511347485     0.00003477780629     0.00001554952422
    4     0.00001191365910     0.00000979179494     0.00000229360721
    5     0.00000649882887     0.00000819067050     0.00000189700542
    6     0.00019083959601     0.00016971394934     0.00003029181399
    7     0.00080256737946     0.00081137736214     0.00018405114804
    8     0.00099557983999     0.00115613384144     0.00034602341623
    9     0.01372506774745     0.01490630485838     0.00323062230259
   10     0.01319127532605     0.01510400213757     0.01263966644626
   11     0.00212591437100     0.00215212319743     0.00197197696024
   12     0.00051930975313     0.00059108079246     0.00043068409310
   13     0.06474804903132     0.06299502820942     0.07417667293025
   14     0.94018802186688     0.93866896232562     0.94111975051879
   15     0.00003188800715     0.00003753831499     0.00001006741436
   16     0.00020652789829     0.00019781965277     0.00001550810846
   17     0.00668937559533     0.00648757217176     0.00146535344490
   18     0.00008182935668     0.00008580830220     0.00005473564548
   19     0.00001220742989     0.00001505381091     0.00000868868584
   20     0.00042684422587     0.00038560748098     0.00029151410794
   21     0.00000000000000     0.03737899238354     0.04182862093614
   22     0.03737899238354     0.00000000000000     0.04188241811798
   23     0.04182862093614     0.04188241811798     0.00000000000000



  Atomic Valences: 

 #  #
 Irrep: 1
      1:  4.1641148
      2:  5.0561567
      3:  5.0853454
      4:  1.8233596
      5:  1.8518198
      6:  4.9402088
      7:  4.6356147
      8:  4.4363606
      9:  4.4746859
     10:  4.8164294
     11:  4.4674475
     12:  4.7314962
     13:  3.2286770
     14:  4.2542710
     15:  2.8796939
     16:  2.9248078
     17:  1.1195357
     18:  1.0995673
     19:  1.1464390
     20:  1.1073148
     21:  1.1233203
     22:  1.1232258
     23:  1.1198017


    Psi4 stopped on: Tuesday, 22 June 2021 07:32AM
    Psi4 wall time for execution: 0:01:29.04

*** Psi4 exiting successfully. Buy a developer a beer!
