
    -----------------------------------------------------------------------
          Psi4: An Open-Source Ab Initio Electronic Structure Package
                               Psi4 1.3.2 release

                         Git: Rev {HEAD} ecbda83 


    R. M. Parrish, L. A. Burns, D. G. A. Smith, A. C. Simmonett,
    A. E. DePrince III, E. G. Hohenstein, U. Bozkaya, A. Yu. Sokolov,
    R. Di Remigio, R. M. Richard, J. F. Gonthier, A. M. James,
    H. R. McAlexander, A. Kumar, M. Saitow, X. Wang, B. P. Pritchard,
    P. Verma, H. F. Schaefer III, K. Patkowski, R. A. King, E. F. Valeev,
    F. A. Evangelista, J. M. Turney, T. D. Crawford, and C. D. Sherrill,
    J. Chem. Theory Comput. 13(7) pp 3185--3197 (2017).
    (doi: 10.1021/acs.jctc.7b00174)


                         Additional Contributions by
    P. Kraus, H. Kruse, M. H. Lechner, M. C. Schieber, R. A. Shaw,
    A. Alenaizan, R. Galvelis, Z. L. Glick, S. Lehtola, and J. P. Misiewicz

    -----------------------------------------------------------------------


    Psi4 started on: Tuesday, 22 June 2021 04:10AM

    Process ID: 23548
    Host:       cpu-spot-dy-c5n2xlarge-1
    PSIDATADIR: /fsx/users/francis/anaconda3/envs/poltype-dev/share/psi4
    Memory:     500.0 MiB
    Threads:    1
    
  ==> Input File <==

--------------------------------------------------------------------------
molecule { 
0 1
 N   -1.066991   -1.480223    0.238286
 C   -2.379573   -1.129873    0.417882
 C   -2.695599    0.401327    0.355664
 F   -3.662516    0.586933   -0.607100
 F   -3.225838    0.763026    1.573788
 C   -1.504034    1.370327    0.039534
 C   -0.158330    0.773805   -0.122604
 C    0.953916    1.599375   -0.397202
 C    2.237539    1.057898   -0.542325
 C    2.443447   -0.343999   -0.425571
 C    1.327535   -1.168731   -0.159048
 C    0.036788   -0.630545   -0.013225
 S    4.005450   -1.183923   -0.545286
 C    5.270769    0.106182   -0.700911
 O   -3.226386   -1.987920    0.620866
 O   -1.692529    2.579338   -0.056809
 H    3.061494    1.740947   -0.743193
 H    0.788659    2.673467   -0.489507
 H   -0.927151   -2.479672    0.297008
 H    1.470424   -2.245506   -0.054743
 H    5.173665    0.817698    0.125091
 H    6.258918   -0.362643   -0.662445
 H    5.148373    0.620656   -1.659115
}
set optking { 
  frozen_dihedral = ("
    11 10 13 14
    9 10 13 14
    21 14 13 10
  ")
}
set {
  geom_maxiter 400
  g_convergence GAU_LOOSE
  dynamic_level 1
}
memory 16GB
set_num_threads(8)
psi4_io.set_default_path("/scratch/Psi4-ligand")
for _ in range(1):
  try:
    set opt_coordinates both
    optimize('wb97x-d/6-31+G*')
    break
  except OptimizationConvergenceError:
    break
  else:
    try:
      set opt_coordinates cartesian
      optimize('wb97x-d/6-31+G*')
      break
    except OptimizationConvergenceError:
      pass
clean()
--------------------------------------------------------------------------

  Memory set to  14.901 GiB by Python driver.
  Threads set to 8 by Python driver.
gradient() will perform analytic gradient computation.

*** tstart() called on cpu-spot-dy-c5n2xlarge-1
*** at Tue Jun 22 04:10:33 2021

   => Loading Basis Set <=

    Name: 6-31+G*
    Role: ORBITAL
    Keyword: BASIS
    atoms 1             entry N          line   138 file /fsx/users/francis/anaconda3/envs/poltype-dev/share/psi4/basis/6-31pgs.gbs 
    atoms 2-3, 6-12, 14 entry C          line   119 file /fsx/users/francis/anaconda3/envs/poltype-dev/share/psi4/basis/6-31pgs.gbs 
    atoms 4-5           entry F          line   176 file /fsx/users/francis/anaconda3/envs/poltype-dev/share/psi4/basis/6-31pgs.gbs 
    atoms 13            entry S          line   344 file /fsx/users/francis/anaconda3/envs/poltype-dev/share/psi4/basis/6-31pgs.gbs 
    atoms 15-16         entry O          line   157 file /fsx/users/francis/anaconda3/envs/poltype-dev/share/psi4/basis/6-31pgs.gbs 
    atoms 17-23         entry H          line    46 file /fsx/users/francis/anaconda3/envs/poltype-dev/share/psi4/basis/6-31pgs.gbs 


         ---------------------------------------------------------
                                   SCF
               by Justin Turney, Rob Parrish, Andy Simmonett
                          and Daniel G. A. Smith
                              RKS Reference
                        8 Threads,  15258 MiB Core
         ---------------------------------------------------------

  ==> Geometry <==

    Molecular point group: c1
    Full point group: C1

    Geometry (in Angstrom), charge = 0, multiplicity = 1:

       Center              X                  Y                   Z               Mass       
    ------------   -----------------  -----------------  -----------------  -----------------
         N           -1.030384563601    -1.487328391831     0.273242992912    14.003074004430
         C           -2.342966563601    -1.136978391831     0.452838992912    12.000000000000
         C           -2.658992563601     0.394221608169     0.390620992912    12.000000000000
         F           -3.625909563601     0.579827608169    -0.572143007088    18.998403162730
         F           -3.189231563601     0.755920608169     1.608744992912    18.998403162730
         C           -1.467427563601     1.363221608169     0.074490992912    12.000000000000
         C           -0.121723563601     0.766699608169    -0.087647007088    12.000000000000
         C            0.990522436399     1.592269608169    -0.362245007088    12.000000000000
         C            2.274145436399     1.050792608169    -0.507368007088    12.000000000000
         C            2.480053436399    -0.351104391831    -0.390614007088    12.000000000000
         C            1.364141436399    -1.175836391831    -0.124091007088    12.000000000000
         C            0.073394436399    -0.637650391831     0.021731992912    12.000000000000
         S            4.042056436399    -1.191028391831    -0.510329007088    31.972071174400
         C            5.307375436399     0.099076608169    -0.665954007088    12.000000000000
         O           -3.189779563601    -1.995025391831     0.655822992912    15.994914619570
         O           -1.655922563601     2.572232608169    -0.021852007088    15.994914619570
         H            3.098100436399     1.733841608169    -0.708236007088     1.007825032230
         H            0.825265436399     2.666361608169    -0.454550007088     1.007825032230
         H           -0.890544563601    -2.486777391831     0.331964992912     1.007825032230
         H            1.507030436399    -2.252611391831    -0.019786007088     1.007825032230
         H            5.210271436399     0.810592608169     0.160047992912     1.007825032230
         H            6.295524436399    -0.369748391831    -0.627488007088     1.007825032230
         H            5.184979436399     0.613550608169    -1.624158007088     1.007825032230

  Running in c1 symmetry.

  Rotational constants: A =      0.03852  B =      0.00809  C =      0.00696 [cm^-1]
  Rotational constants: A =   1154.92263  B =    242.66061  C =    208.72514 [MHz]
  Nuclear repulsion = 1174.357364298893117

  Charge       = 0
  Multiplicity = 1
  Electrons    = 124
  Nalpha       = 62
  Nbeta        = 62

  ==> Algorithm <==

  SCF Algorithm Type is DF.
  DIIS enabled.
  MOM disabled.
  Fractional occupation disabled.
  Guess Type is SAD.
  Energy threshold   = 1.00e-08
  Density threshold  = 1.00e-08
  Integral threshold = 0.00e+00

  ==> Primary Basis <==

  Basis Set: 6-31+G*
    Blend: 6-31+G*
    Number of shells: 144
    Number of basis function: 322
    Number of Cartesian functions: 322
    Spherical Harmonics?: false
    Max angular momentum: 2

  ==> DFT Potential <==

   => Composite Functional: WB97X-D <= 

    wB97X-D Hyb-GGA Exchange-Correlation Functional

    J.-D. Chai and M. Head-Gordon, Phys. Chem. Chem. Phys. 10, 6615 (2008)

    Deriv               =              1
    GGA                 =           TRUE
    Meta                =          FALSE

    Exchange Hybrid     =           TRUE
    MP2 Hybrid          =          FALSE

   => Exchange-Correlation Functionals <=

    1.0000   wB97D range-separated functional

   => Exact (HF) Exchange <=

    0.7780            HF,LR [omega = 0.2000]
    0.2220               HF 

   => Molecular Quadrature <=

    Radial Scheme          =       TREUTLER
    Pruning Scheme         =           FLAT
    Nuclear Scheme         =       TREUTLER

    BS radius alpha        =              1
    Pruning alpha          =              1
    Radial Points          =             75
    Spherical Points       =            302
    Total Points           =         520854
    Total Blocks           =           3894
    Max Points             =            256
    Max Functions          =            279

   => WB97X-D: Empirical Dispersion <=

    Chai and Head-Gordon Dispersion Correction
    Chai, J.-D.; Head-Gordon, M. (2010), J. Chem. Phys., 132: 6615-6620

        s6 =       1.000000

   => Loading Basis Set <=

    Name: (6-31+G* AUX)
    Role: JKFIT
    Keyword: DF_BASIS_SCF
    atoms 1             entry N          line   252 file /fsx/users/francis/anaconda3/envs/poltype-dev/share/psi4/basis/heavy-aug-cc-pvdz-jkfit.gbs 
    atoms 2-3, 6-12, 14 entry C          line   194 file /fsx/users/francis/anaconda3/envs/poltype-dev/share/psi4/basis/heavy-aug-cc-pvdz-jkfit.gbs 
    atoms 4-5           entry F          line   368 file /fsx/users/francis/anaconda3/envs/poltype-dev/share/psi4/basis/heavy-aug-cc-pvdz-jkfit.gbs 
    atoms 13            entry S          line   730 file /fsx/users/francis/anaconda3/envs/poltype-dev/share/psi4/basis/heavy-aug-cc-pvdz-jkfit.gbs 
    atoms 15-16         entry O          line   310 file /fsx/users/francis/anaconda3/envs/poltype-dev/share/psi4/basis/heavy-aug-cc-pvdz-jkfit.gbs 
    atoms 17-23         entry H          line   116 file /fsx/users/francis/anaconda3/envs/poltype-dev/share/psi4/basis/heavy-aug-cc-pvdz-jkfit.gbs 

  ==> Pre-Iterations <==

   -------------------------------------------------------
    Irrep   Nso     Nmo     Nalpha   Nbeta   Ndocc  Nsocc
   -------------------------------------------------------
     A        322     322       0       0       0       0
   -------------------------------------------------------
    Total     322     322      62      62      62       0
   -------------------------------------------------------

  ==> Integral Setup <==

  ==> DiskDFJK: Density-Fitted J/K Matrices <==

    J tasked:                  Yes
    K tasked:                  Yes
    wK tasked:                 Yes
    Omega:               2.000E-01
    OpenMP threads:              8
    Integrals threads:           8
    Memory [MiB]:             8457
    Algorithm:                Core
    Integral Cache:           NONE
    Schwarz Cutoff:          1E-12
    Fitting Condition:       1E-10

   => Auxiliary Basis Set <=

  Basis Set: (6-31+G* AUX)
    Blend: HEAVY-AUG-CC-PVDZ-JKFIT
    Number of shells: 523
    Number of basis function: 1840
    Number of Cartesian functions: 1840
    Spherical Harmonics?: false
    Max angular momentum: 3

  Cached 100.0% of DFT collocation blocks in 2.917 [GiB].

  Minimum eigenvalue in the overlap matrix is 5.0757689241E-07.
  Using Symmetric Orthogonalization.

  SCF Guess: Superposition of Atomic Densities via on-the-fly atomic UHF.

  ==> Iterations <==

                           Total Energy        Delta E     RMS |[F,P]|

   @DF-RKS iter SAD: -1187.20853350942980   -1.18721e+03   0.00000e+00 
   @DF-RKS iter   1: -1187.53806114872441   -3.29528e-01   3.40136e-03 DIIS
   @DF-RKS iter   2: -1187.54865426928018   -1.05931e-02   3.70609e-03 DIIS
   @DF-RKS iter   3: -1188.08789168622957   -5.39237e-01   7.83527e-04 DIIS
   @DF-RKS iter   4: -1188.11208754821882   -2.41959e-02   2.67322e-04 DIIS
   @DF-RKS iter   5: -1188.11561369448850   -3.52615e-03   7.20623e-05 DIIS
   @DF-RKS iter   6: -1188.11601344891960   -3.99754e-04   2.36793e-05 DIIS
   @DF-RKS iter   7: -1188.11607411463456   -6.06657e-05   1.02406e-05 DIIS
   @DF-RKS iter   8: -1188.11609050284187   -1.63882e-05   3.93007e-06 DIIS
   @DF-RKS iter   9: -1188.11609332096373   -2.81812e-06   2.14757e-06 DIIS
   @DF-RKS iter  10: -1188.11609366690163   -3.45938e-07   7.22454e-07 DIIS
   @DF-RKS iter  11: -1188.11609371684472   -4.99431e-08   3.21411e-07 DIIS
   @DF-RKS iter  12: -1188.11609372704993   -1.02052e-08   1.48247e-07 DIIS
   @DF-RKS iter  13: -1188.11609372955604   -2.50611e-09   5.67559e-08 DIIS
   @DF-RKS iter  14: -1188.11609372984185   -2.85809e-10   2.44689e-08 DIIS
   @DF-RKS iter  15: -1188.11609372990188   -6.00267e-11   1.16590e-08 DIIS
   @DF-RKS iter  16: -1188.11609372990938   -7.50333e-12   6.24834e-09 DIIS
  Energy and wave function converged.


  ==> Post-Iterations <==

    Orbital Energies [Eh]
    ---------------------

    Doubly Occupied:                                                      

       1A    -89.085961     2A    -24.873675     3A    -24.872377  
       4A    -19.304839     5A    -19.293411     6A    -14.542321  
       7A    -10.510211     8A    -10.458196     9A    -10.435169  
      10A    -10.411160    11A    -10.393692    12A    -10.359021  
      13A    -10.355309    14A    -10.352888    15A    -10.352794  
      16A    -10.347224    17A     -8.103297    18A     -6.054031  
      19A     -6.049500    20A     -6.043459    21A     -1.381406  
      22A     -1.325020    23A     -1.188669    24A     -1.174583  
      25A     -1.091599    26A     -0.999378    27A     -0.940710  
      28A     -0.904070    29A     -0.885834    30A     -0.869198  
      31A     -0.797840    32A     -0.763422    33A     -0.750358  
      34A     -0.744065    35A     -0.693158    36A     -0.678383  
      37A     -0.665626    38A     -0.643997    39A     -0.627833  
      40A     -0.589130    41A     -0.583361    42A     -0.564489  
      43A     -0.561782    44A     -0.556070    45A     -0.553270  
      46A     -0.552464    47A     -0.548573    48A     -0.535871  
      49A     -0.522937    50A     -0.516079    51A     -0.506496  
      52A     -0.498678    53A     -0.490672    54A     -0.485691  
      55A     -0.474608    56A     -0.438853    57A     -0.429939  
      58A     -0.395653    59A     -0.395014    60A     -0.367462  
      61A     -0.339573    62A     -0.318628  

    Virtual:                                                              

      63A     -0.046552    64A      0.011586    65A      0.039394  
      66A      0.047396    67A      0.052098    68A      0.064960  
      69A      0.066643    70A      0.074604    71A      0.080209  
      72A      0.088062    73A      0.092302    74A      0.094627  
      75A      0.105083    76A      0.111480    77A      0.114718  
      78A      0.116908    79A      0.118412    80A      0.133437  
      81A      0.136662    82A      0.138206    83A      0.146298  
      84A      0.147774    85A      0.155220    86A      0.161819  
      87A      0.171936    88A      0.173593    89A      0.178016  
      90A      0.180172    91A      0.183190    92A      0.188880  
      93A      0.192381    94A      0.196992    95A      0.203866  
      96A      0.205196    97A      0.213732    98A      0.217871  
      99A      0.220270   100A      0.226620   101A      0.233372  
     102A      0.238503   103A      0.240193   104A      0.243808  
     105A      0.245447   106A      0.248038   107A      0.254260  
     108A      0.261787   109A      0.264211   110A      0.272137  
     111A      0.275985   112A      0.284543   113A      0.285428  
     114A      0.288638   115A      0.297607   116A      0.300836  
     117A      0.306879   118A      0.314505   119A      0.316500  
     120A      0.325808   121A      0.329752   122A      0.331963  
     123A      0.336043   124A      0.341044   125A      0.354193  
     126A      0.359830   127A      0.361728   128A      0.373859  
     129A      0.379361   130A      0.387012   131A      0.392200  
     132A      0.394073   133A      0.395499   134A      0.401774  
     135A      0.412041   136A      0.417878   137A      0.433342  
     138A      0.438853   139A      0.443929   140A      0.449456  
     141A      0.460827   142A      0.471997   143A      0.477278  
     144A      0.485074   145A      0.505487   146A      0.511318  
     147A      0.524616   148A      0.528906   149A      0.533242  
     150A      0.556941   151A      0.575303   152A      0.580217  
     153A      0.585271   154A      0.594578   155A      0.606325  
     156A      0.626783   157A      0.655091   158A      0.663803  
     159A      0.670546   160A      0.694775   161A      0.728080  
     162A      0.743449   163A      0.754295   164A      0.758151  
     165A      0.769224   166A      0.773486   167A      0.788601  
     168A      0.797540   169A      0.803138   170A      0.813796  
     171A      0.822626   172A      0.838532   173A      0.861691  
     174A      0.878472   175A      0.882457   176A      0.897062  
     177A      0.912714   178A      0.922655   179A      0.925242  
     180A      0.931487   181A      0.962767   182A      0.968328  
     183A      0.977652   184A      0.986437   185A      1.012154  
     186A      1.025889   187A      1.043115   188A      1.052174  
     189A      1.057044   190A      1.079382   191A      1.087830  
     192A      1.101289   193A      1.119379   194A      1.151701  
     195A      1.155944   196A      1.172169   197A      1.201979  
     198A      1.209872   199A      1.212381   200A      1.221366  
     201A      1.235067   202A      1.248251   203A      1.270331  
     204A      1.279875   205A      1.283084   206A      1.321115  
     207A      1.322869   208A      1.335441   209A      1.341014  
     210A      1.394966   211A      1.401943   212A      1.408825  
     213A      1.414795   214A      1.418143   215A      1.442916  
     216A      1.450139   217A      1.451432   218A      1.465288  
     219A      1.468800   220A      1.485568   221A      1.510481  
     222A      1.518631   223A      1.527693   224A      1.530426  
     225A      1.557291   226A      1.592048   227A      1.621066  
     228A      1.650085   229A      1.663707   230A      1.671122  
     231A      1.709504   232A      1.749631   233A      1.755635  
     234A      1.757602   235A      1.759052   236A      1.761793  
     237A      1.772306   238A      1.780926   239A      1.789265  
     240A      1.820906   241A      1.838664   242A      1.864926  
     243A      1.874418   244A      1.896272   245A      1.900769  
     246A      1.910655   247A      1.919485   248A      1.947029  
     249A      1.963092   250A      1.966969   251A      1.972362  
     252A      2.004892   253A      2.039451   254A      2.048635  
     255A      2.056316   256A      2.059703   257A      2.080430  
     258A      2.091096   259A      2.100324   260A      2.112964  
     261A      2.145906   262A      2.152308   263A      2.167676  
     264A      2.200007   265A      2.205913   266A      2.210622  
     267A      2.247688   268A      2.257919   269A      2.262189  
     270A      2.272257   271A      2.303538   272A      2.308087  
     273A      2.310917   274A      2.343789   275A      2.348602  
     276A      2.367151   277A      2.381163   278A      2.403352  
     279A      2.462588   280A      2.465360   281A      2.510467  
     282A      2.514332   283A      2.569768   284A      2.625992  
     285A      2.656832   286A      2.677900   287A      2.704949  
     288A      2.733761   289A      2.737568   290A      2.769296  
     291A      2.778982   292A      2.827836   293A      2.832654  
     294A      2.850071   295A      2.899364   296A      2.946105  
     297A      2.960024   298A      3.029916   299A      3.122146  
     300A      3.154738   301A      3.212402   302A      3.234597  
     303A      3.338018   304A      3.378991   305A      3.462809  
     306A      3.486352   307A      4.035364   308A      4.278926  
     309A      4.328799   310A      4.334683   311A      4.361153  
     312A      4.377031   313A      4.415770   314A      4.469571  
     315A      4.486578   316A      4.521445   317A      4.580475  
     318A      4.780058   319A      4.835055   320A      5.113065  
     321A      5.699812   322A      7.141049  

    Final Occupation by Irrep:
              A 
    DOCC [    62 ]

  @DF-RKS Final Energy: -1188.11609372990938

   => Energetics <=

    Nuclear Repulsion Energy =           1174.3573642988931169
    One-Electron Energy =               -3962.7872593109914305
    Two-Electron Energy =                1689.7667225133552620
    DFT Exchange-Correlation Energy =     -89.4393273358701038
    Empirical Dispersion Energy =          -0.0135938952962749
    VV10 Nonlocal Energy =                  0.0000000000000000
    Total Energy =                      -1188.1160937299093803

Computation Completed


Properties will be evaluated at   0.000000,   0.000000,   0.000000 [a0]

Properties computed using the SCF density matrix

  Nuclear Dipole Moment: [e a0]
     X:    26.4185      Y:    -0.6139      Z:    -3.7473

  Electronic Dipole Moment: [e a0]
     X:   -23.1564      Y:     0.2455      Z:     3.3242

  Dipole Moment: [e a0]
     X:     3.2621      Y:    -0.3684      Z:    -0.4231     Total:     3.3100

  Dipole Moment: [D]
     X:     8.2914      Y:    -0.9364      Z:    -1.0755     Total:     8.4131


*** tstop() called on cpu-spot-dy-c5n2xlarge-1 at Tue Jun 22 04:11:49 2021
Module time:
	user time   =     564.51 seconds =       9.41 minutes
	system time =      10.45 seconds =       0.17 minutes
	total time  =         76 seconds =       1.27 minutes
Total time:
	user time   =     564.51 seconds =       9.41 minutes
	system time =      10.45 seconds =       0.17 minutes
	total time  =         76 seconds =       1.27 minutes

*** tstart() called on cpu-spot-dy-c5n2xlarge-1
*** at Tue Jun 22 04:11:49 2021


         ------------------------------------------------------------
                                   SCF GRAD                          
                          Rob Parrish, Justin Turney,                
                       Andy Simmonett, and Alex Sokolov              
         ------------------------------------------------------------

  ==> Geometry <==

    Molecular point group: c1
    Full point group: C1

    Geometry (in Angstrom), charge = 0, multiplicity = 1:

       Center              X                  Y                   Z               Mass       
    ------------   -----------------  -----------------  -----------------  -----------------
         N           -1.030384563601    -1.487328391831     0.273242992912    14.003074004430
         C           -2.342966563601    -1.136978391831     0.452838992912    12.000000000000
         C           -2.658992563601     0.394221608169     0.390620992912    12.000000000000
         F           -3.625909563601     0.579827608169    -0.572143007088    18.998403162730
         F           -3.189231563601     0.755920608169     1.608744992912    18.998403162730
         C           -1.467427563601     1.363221608169     0.074490992912    12.000000000000
         C           -0.121723563601     0.766699608169    -0.087647007088    12.000000000000
         C            0.990522436399     1.592269608169    -0.362245007088    12.000000000000
         C            2.274145436399     1.050792608169    -0.507368007088    12.000000000000
         C            2.480053436399    -0.351104391831    -0.390614007088    12.000000000000
         C            1.364141436399    -1.175836391831    -0.124091007088    12.000000000000
         C            0.073394436399    -0.637650391831     0.021731992912    12.000000000000
         S            4.042056436399    -1.191028391831    -0.510329007088    31.972071174400
         C            5.307375436399     0.099076608169    -0.665954007088    12.000000000000
         O           -3.189779563601    -1.995025391831     0.655822992912    15.994914619570
         O           -1.655922563601     2.572232608169    -0.021852007088    15.994914619570
         H            3.098100436399     1.733841608169    -0.708236007088     1.007825032230
         H            0.825265436399     2.666361608169    -0.454550007088     1.007825032230
         H           -0.890544563601    -2.486777391831     0.331964992912     1.007825032230
         H            1.507030436399    -2.252611391831    -0.019786007088     1.007825032230
         H            5.210271436399     0.810592608169     0.160047992912     1.007825032230
         H            6.295524436399    -0.369748391831    -0.627488007088     1.007825032230
         H            5.184979436399     0.613550608169    -1.624158007088     1.007825032230

  Nuclear repulsion = 1174.357364298893117

  ==> Basis Set <==

  Basis Set: 6-31+G*
    Blend: 6-31+G*
    Number of shells: 144
    Number of basis function: 322
    Number of Cartesian functions: 322
    Spherical Harmonics?: false
    Max angular momentum: 2

  ==> DFJKGrad: Density-Fitted SCF Gradients <==

    Gradient:                    1
    J tasked:                  Yes
    K tasked:                  Yes
    wK tasked:                 Yes
    Omega:               2.000E-01
    OpenMP threads:              8
    Integrals threads:           8
    Memory [MiB]:            11444
    Schwarz Cutoff:          0E+00
    Fitting Condition:       1E-10

   => Auxiliary Basis Set <=

  Basis Set: (6-31+G* AUX)
    Blend: HEAVY-AUG-CC-PVDZ-JKFIT
    Number of shells: 523
    Number of basis function: 1840
    Number of Cartesian functions: 1840
    Spherical Harmonics?: false
    Max angular momentum: 3

  ==> DFT Potential <==

   => Composite Functional: WB97X-D <= 

    wB97X-D Hyb-GGA Exchange-Correlation Functional

    J.-D. Chai and M. Head-Gordon, Phys. Chem. Chem. Phys. 10, 6615 (2008)

    Deriv               =              1
    GGA                 =           TRUE
    Meta                =          FALSE

    Exchange Hybrid     =           TRUE
    MP2 Hybrid          =          FALSE

   => Exchange-Correlation Functionals <=

    1.0000   wB97D range-separated functional

   => Exact (HF) Exchange <=

    0.7780            HF,LR [omega = 0.2000]
    0.2220               HF 

   => Molecular Quadrature <=

    Radial Scheme          =       TREUTLER
    Pruning Scheme         =           FLAT
    Nuclear Scheme         =       TREUTLER

    BS radius alpha        =              1
    Pruning alpha          =              1
    Radial Points          =             75
    Spherical Points       =            302
    Total Points           =         520854
    Total Blocks           =           3894
    Max Points             =            256
    Max Functions          =            279


  -Total Gradient:
     Atom            X                  Y                   Z
    ------   -----------------  -----------------  -----------------
       1       -0.009547831385    -0.010874521787     0.001925560977
       2        0.007789375290     0.011330472940    -0.002633863974
       3        0.012937533713    -0.004040054385    -0.000275332922
       4       -0.012980582709     0.002646011168    -0.013845855283
       5       -0.006665384983     0.004708569767     0.015841069740
       6       -0.008622908160    -0.021683348011     0.003271528932
       7       -0.000439923724     0.007408260018     0.000315048651
       8       -0.003317570485     0.013499588972    -0.001800390777
       9        0.005344158320     0.003057978159    -0.000640769287
      10        0.008825299739    -0.010100827200    -0.003649926454
      11        0.004424392299    -0.002692315311     0.000112350053
      12       -0.002135371459    -0.005862677894     0.001786382374
      13        0.003836851265     0.004732359670    -0.000968873036
      14        0.010621970685    -0.008245820303     0.001408773582
      15       -0.008582644998    -0.021448792114     0.003240101125
      16        0.004851448614     0.028955083065    -0.003669234463
      17        0.000693223313     0.003790066532    -0.000080806532
      18       -0.000770499969     0.003893859549    -0.000603324591
      19       -0.004110469165     0.001700751477     0.000438680669
      20        0.000449119599    -0.002448789605     0.000421182274
      21       -0.002790509400    -0.000197781091     0.001048327565
      22        0.004169635296     0.002778469870    -0.000318148394
      23       -0.003223725920    -0.001267323587    -0.001399004916


*** tstop() called on cpu-spot-dy-c5n2xlarge-1 at Tue Jun 22 04:12:13 2021
Module time:
	user time   =     149.29 seconds =       2.49 minutes
	system time =       3.69 seconds =       0.06 minutes
	total time  =         24 seconds =       0.40 minutes
Total time:
	user time   =     713.81 seconds =      11.90 minutes
	system time =      14.14 seconds =       0.24 minutes
	total time  =        100 seconds =       1.67 minutes

			-----------------------------------------
			 OPTKING 2.0: for geometry optimizations 
			  - R.A. King,  Bethel University        
			-----------------------------------------
	At level 1: Red. Int., RFO, no backsteps, dynamic trust

	Internal coordinates to be generated automatically.
	Detected frag 1 with atoms:  1 2 3 4 5 6 7 8 9 10 11 12 13 14 15 16 17 18 19 20
	 21 22 23
	---Fragment 1 Bond Connectivity---
	 1 : 2 12 19
	 2 : 1 3 15
	 3 : 2 4 5 6
	 4 : 3
	 5 : 3
	 6 : 3 7 16
	 7 : 6 8 12
	 8 : 7 9 18
	 9 : 8 10 17
	 10 : 9 11 13
	 11 : 10 12 20
	 12 : 1 7 11
	 13 : 10 14
	 14 : 13 21 22 23
	 15 : 2
	 16 : 6
	 17 : 9
	 18 : 8
	 19 : 1
	 20 : 11
	 21 : 14
	 22 : 14
	 23 : 14

	Assuming in current code that numbering for constraints corresponds to unified fragment.
	Frozen dihedral atom list: 
	    11    10    13    14
	     9    10    13    14
	    21    14    13    10
	---Fragment 1 Geometry and Gradient---
	 N          -1.9471446291       -2.8106433192        0.5163544223
	 C          -4.4275651263       -2.1485777711        0.8557416755
	 C          -5.0247677148        0.7449708722        0.7381666955
	 F          -6.8519760309        1.0957153794       -1.0811935880
	 F          -6.0267742059        1.4284829220        3.0400874423
	 C          -2.7730362042        2.5761154877        0.1407675754
	 C          -0.2300241982        1.4488522799       -0.1656288391
	 C           1.8718161259        3.0089534773       -0.6845438537
	 C           4.2975120443        1.9857102441       -0.9587865782
	 C           4.6866217713       -0.6634911420       -0.7381534942
	 C           2.5778537112       -2.2220087489       -0.2344980180
	 C           0.1386953839       -1.2049846044        0.0410675148
	 S           7.6383796484       -2.2507174682       -0.9643820573
	 C          10.0294860198        0.1872276549       -1.2584706855
	 O          -6.0278097758       -3.7700516039        1.2393258434
	 O          -3.1292401302        4.8608151604       -0.0412943087
	 H           5.8545613340        3.2764857844       -1.3383720856
	 H           1.5595256556        5.0386931909       -0.8589750237
	 H          -1.6828853277       -4.6993282055        0.6273229198
	 H           2.8478747875       -4.2568185976       -0.0373901345
	 H           9.8459860541        1.5317980288        0.3024468735
	 H          11.8968170009       -0.6987231959       -1.1857804804
	 H           9.7981911009        1.1594426135       -3.0692138179
	            -0.0095478314       -0.0108745218        0.0019255610
	             0.0077893753        0.0113304729       -0.0026338640
	             0.0129375337       -0.0040400544       -0.0002753329
	            -0.0129805827        0.0026460112       -0.0138458553
	            -0.0066653850        0.0047085698        0.0158410697
	            -0.0086229082       -0.0216833480        0.0032715289
	            -0.0004399237        0.0074082600        0.0003150487
	            -0.0033175705        0.0134995890       -0.0018003908
	             0.0053441583        0.0030579782       -0.0006407693
	             0.0088252997       -0.0101008272       -0.0036499265
	             0.0044243923       -0.0026923153        0.0001123501
	            -0.0021353715       -0.0058626779        0.0017863824
	             0.0038368513        0.0047323597       -0.0009688730
	             0.0106219707       -0.0082458203        0.0014087736
	            -0.0085826450       -0.0214487921        0.0032401011
	             0.0048514486        0.0289550831       -0.0036692345
	             0.0006932233        0.0037900665       -0.0000808065
	            -0.0007705000        0.0038938595       -0.0006033246
	            -0.0041104692        0.0017007515        0.0004386807
	             0.0004491196       -0.0024487896        0.0004211823
	            -0.0027905094       -0.0001977811        0.0010483276
	             0.0041696353        0.0027784699       -0.0003181484
	            -0.0032237259       -0.0012673236       -0.0013990049

	Previous optimization step data not found.  Starting new optimization.

	---Fragment 1 Intrafragment Coordinates---
	 - Coordinate -           - BOHR/RAD -       - ANG/DEG -
	 R(1,2)           =         2.589595	       1.370354
	 R(1,12)          =         2.674839	       1.415464
	 R(1,19)          =         1.910308	       1.010892
	 R(2,3)           =         2.956873	       1.564710
	 R(2,15)          =         2.310216	       1.222514
	 R(3,4)           =         2.602265	       1.377059
	 R(3,5)           =         2.601931	       1.376883
	 R(3,6)           =         2.963152	       1.568033
	 R(6,7)           =         2.798484	       1.480894
	 R(6,16)          =         2.319457	       1.227404
	 R(7,8)           =         2.668505	       1.412112
	 R(7,12)          =         2.687290	       1.422053
	 R(8,9)           =         2.646930	       1.400695
	 R(8,18)          =         2.061018	       1.090644
	 R(9,10)          =         2.686699	       1.421740
	 R(9,17)          =         2.057812	       1.088947
	 R(10,11)         =         2.670121	       1.412967
	 R(10,13)         =         3.359069	       1.777543
	 R(11,12)         =         2.657022	       1.406036
	 R(11,20)         =         2.062090	       1.091211
	 R(13,14)         =         3.427456	       1.813732
	 R(14,21)         =         2.068334	       1.094515
	 R(14,22)         =         2.068119	       1.094402
	 R(14,23)         =         2.068209	       1.094449
	 B(1,2,3)         =         2.024651	     116.003963
	 B(1,2,15)        =         2.101102	     120.384266
	 B(1,12,7)        =         2.093796	     119.965690
	 B(1,12,11)       =         2.099621	     120.299445
	 B(2,1,12)        =         2.235393	     128.078583
	 B(2,1,19)        =         1.958062	     112.188698
	 B(2,3,4)         =         1.877077	     107.548569
	 B(2,3,5)         =         1.875142	     107.437728
	 B(2,3,6)         =         2.047974	     117.340272
	 B(3,2,15)        =         2.157406	     123.610243
	 B(3,6,7)         =         2.052947	     117.625219
	 B(3,6,16)        =         2.103466	     120.519750
	 B(4,3,5)         =         1.888853	     108.223318
	 B(4,3,6)         =         1.885287	     108.019009
	 B(5,3,6)         =         1.884589	     107.978982
	 B(6,7,8)         =         2.096170	     120.101666
	 B(6,7,12)        =         2.110707	     120.934603
	 B(7,6,16)        =         2.126728	     121.852520
	 B(7,8,9)         =         2.112919	     121.061333
	 B(7,8,18)        =         2.063346	     118.221010
	 B(7,12,11)       =         2.089765	     119.734689
	 B(8,7,12)        =         2.076293	     118.962819
	 B(8,9,10)        =         2.100638	     120.357704
	 B(8,9,17)        =         2.060132	     118.036851
	 B(9,8,18)        =         2.106911	     120.717132
	 B(9,10,11)       =         2.067638	     118.466924
	 B(9,10,13)       =         2.198961	     125.991194
	 B(10,9,17)       =         2.122413	     121.605334
	 B(10,11,12)      =         2.118998	     121.409639
	 B(10,11,20)      =         2.083552	     119.378727
	 B(10,13,14)      =         1.857421	     106.422379
	 B(11,10,13)      =         2.016286	     115.524687
	 B(12,1,19)       =         2.089710	     119.731552
	 B(12,11,20)      =         2.080593	     119.209185
	 B(13,14,21)      =         1.913198	     109.618147
	 B(13,14,22)      =         1.898824	     108.794585
	 B(13,14,23)      =         1.908655	     109.357892
	 B(21,14,22)      =         1.909285	     109.393970
	 B(21,14,23)      =         1.923270	     110.195264
	 B(22,14,23)      =         1.910409	     109.458351
	 D(1,2,3,4)       =         2.169853	     124.323419
	 D(1,2,3,5)       =        -2.083466	    -119.373835
	 D(1,2,3,6)       =         0.041954	       2.403761
	 D(1,12,7,6)      =         0.013206	       0.756664
	 D(1,12,7,8)      =        -3.122327	    -178.896165
	 D(1,12,11,10)    =         3.128891	     179.272249
	 D(1,12,11,20)    =        -0.022703	      -1.300769
	 D(2,1,12,7)      =        -0.013837	      -0.792807
	 D(2,1,12,11)     =         3.130427	     179.360253
	 D(2,3,6,7)       =        -0.042316	      -2.424557
	 D(2,3,6,16)      =         3.109153	     178.141331
	 D(3,2,1,12)      =        -0.015106	      -0.865497
	 D(3,2,1,19)      =         3.133457	     179.533835
	 D(3,6,7,8)       =        -3.132461	    -179.476807
	 D(3,6,7,12)      =         0.015259	       0.874295
	 D(4,3,2,15)      =        -0.979580	     -56.125826
	 D(4,3,6,7)       =        -2.165968	    -124.100827
	 D(4,3,6,16)      =         0.985501	      56.465060
	 D(5,3,2,15)      =         1.050285	      60.176919
	 D(5,3,6,7)       =         2.078208	     119.072528
	 D(5,3,6,16)      =        -1.053508	     -60.361585
	 D(6,3,2,15)      =        -3.107480	    -178.045485
	 D(6,7,8,9)       =         3.131399	     179.415950
	 D(6,7,8,18)      =        -0.005621	      -0.322085
	 D(6,7,12,11)     =        -3.131043	    -179.395527
	 D(7,8,9,10)      =         0.008914	       0.510755
	 D(7,8,9,17)      =        -3.130600	    -179.370184
	 D(7,12,1,19)     =         3.120324	     178.781378
	 D(7,12,11,10)    =        -0.010036	      -0.575044
	 D(7,12,11,20)    =         3.121555	     178.851937
	 D(8,7,6,16)      =        -0.000885	      -0.050719
	 D(8,7,12,11)     =         0.016609	       0.951644
	 D(8,9,10,11)     =        -0.001908	      -0.109294
	 D(8,9,10,13)     =        -3.115905	    -178.528198
	 D(9,8,7,12)      =        -0.016201	      -0.928259
	 D(9,10,11,12)    =         0.002568	       0.147156
	 D(9,10,11,20)    =        -3.129007	    -179.278874
	*D(9,10,13,14)    =         0.081512	       4.670313
	 D(10,9,8,18)     =        -3.137364	    -179.757740
	*D(10,13,14,21)   =         0.942745	      54.015321
	 D(10,13,14,22)   =         3.029865	     173.598449
	 D(10,13,14,23)   =        -1.167525	     -66.894232
	 D(11,10,9,17)    =         3.137532	     179.767316
	*D(11,10,13,14)   =        -3.033198	    -173.789437
	 D(11,12,1,19)    =        -0.018598	      -1.065562
	 D(12,1,2,15)     =         3.134057	     179.568214
	 D(12,7,6,16)     =        -3.136350	    -179.699617
	 D(12,7,8,18)     =         3.129964	     179.333706
	 D(12,11,10,13)   =         3.119419	     178.729552
	 D(13,10,9,17)    =         0.023534	       1.348412
	 D(13,10,11,20)   =        -0.012156	      -0.696477
	 D(15,2,1,19)     =        -0.000566	      -0.032454
	 D(17,9,8,18)     =         0.006306	       0.361321

	Current energy   :     -1188.1160937299

	Generating empirical Hessian (Schlegel '84) for each fragment.
	Taking RFO optimization step.
	Going to follow RFO solution 1.
	Using RFO vector 1.
	Norm of target step-size    0.21312
	Projected energy change by RFO approximation:        -0.0131927076

	Back-transformation to cartesian coordinates...
	Successfully converged to displaced geometry.

	Back-transformation to cartesian coordinates to adjust frozen coordinates...
	Successfully converged to displaced geometry.

	--- Internal Coordinate Step in ANG or DEG, aJ/ANG or AJ/DEG ---
	 ---------------------------------------------------------------------------
	   Coordinate                Previous        Force       Change         New 
	   ----------                --------       ------       ------       ------
	    1 R(1,2)          =      1.370354    -0.010283    -0.001212     1.369143
	    2 R(1,12)         =      1.415464    -0.132759    -0.019549     1.395915
	    3 R(1,19)         =      1.010892     0.018547     0.002524     1.013415
	    4 R(2,3)          =      1.564710    -0.096354    -0.021403     1.543307
	    5 R(2,15)         =      1.222514    -0.177504    -0.011919     1.210595
	    6 R(3,4)          =      1.377059    -0.157936    -0.019882     1.357178
	    7 R(3,5)          =      1.376883    -0.147028    -0.018497     1.358386
	    8 R(3,6)          =      1.568033    -0.090381    -0.020406     1.547627
	    9 R(6,7)          =      1.480894    -0.077777    -0.014117     1.466777
	   10 R(6,16)         =      1.227404    -0.231434    -0.015889     1.211515
	   11 R(7,8)          =      1.412112    -0.108265    -0.015571     1.396541
	   12 R(7,12)         =      1.422053    -0.118113    -0.018080     1.403973
	   13 R(8,9)          =      1.400695    -0.136535    -0.018740     1.381955
	   14 R(8,18)         =      1.090644    -0.033132    -0.005892     1.084752
	   15 R(9,10)         =      1.421740    -0.141383    -0.020735     1.401005
	   16 R(9,17)         =      1.088947    -0.023897    -0.004227     1.084720
	   17 R(10,11)        =      1.412967    -0.110539    -0.015671     1.397296
	   18 R(10,13)        =      1.777543    -0.098786    -0.021620     1.755923
	   19 R(11,12)        =      1.406036    -0.142379    -0.019839     1.386197
	   20 R(11,20)        =      1.091211    -0.020573    -0.003665     1.087546
	   21 R(13,14)        =      1.813732    -0.008537    -0.002074     1.811658
	   22 R(14,21)        =      1.094515    -0.007498    -0.001350     1.093165
	   23 R(14,22)        =      1.094402    -0.020867    -0.003756     1.090646
	   24 R(14,23)        =      1.094449    -0.008214    -0.001479     1.092971
	   25 B(1,2,3)        =    116.003963    -0.000064    -0.078662   115.925301
	   26 B(1,2,15)       =    120.384266     0.000815     2.279237   122.663503
	   27 B(1,12,7)       =    119.965690     0.000223     0.448445   120.414135
	   28 B(1,12,11)      =    120.299445    -0.000419    -1.091989   119.207457
	   29 B(2,1,12)       =    128.078583    -0.000184    -0.651803   127.426780
	   30 B(2,1,19)       =    112.188698     0.000377     1.551219   113.739917
	   31 B(2,3,4)        =    107.548569    -0.000030    -0.092516   107.456053
	   32 B(2,3,5)        =    107.437728    -0.000030    -0.200786   107.236943
	   33 B(2,3,6)        =    117.340272     0.000075     0.506734   117.847007
	   34 B(3,2,15)       =    123.610243    -0.000752    -2.199311   121.410931
	   35 B(3,6,7)        =    117.625219    -0.000148    -0.369870   117.255349
	   36 B(3,6,16)       =    120.519750    -0.000751    -2.162653   118.357097
	   37 B(4,3,5)        =    108.223318    -0.000017    -0.235489   107.987829
	   38 B(4,3,6)        =    108.019009     0.000014     0.101024   108.120032
	   39 B(5,3,6)        =    107.978982    -0.000018    -0.136225   107.842757
	   40 B(6,7,8)        =    120.101666    -0.000032     0.000193   120.101859
	   41 B(6,7,12)       =    120.934603     0.000098     0.153777   121.088381
	   42 B(7,6,16)       =    121.852520     0.000899     2.533386   124.385906
	   43 B(7,8,9)        =    121.061333     0.000061     0.176227   121.237560
	   44 B(7,8,18)       =    118.221010    -0.000019    -0.037642   118.183367
	   45 B(7,12,11)      =    119.734689     0.000195     0.643442   120.378131
	   46 B(8,7,12)       =    118.962819    -0.000066    -0.153084   118.809735
	   47 B(8,9,10)       =    120.357704    -0.000240    -0.752470   119.605235
	   48 B(8,9,17)       =    118.036851     0.000316     1.236363   119.273215
	   49 B(9,8,18)       =    120.717132    -0.000042    -0.138074   120.579058
	   50 B(9,10,11)      =    118.466924     0.000451     1.331154   119.798078
	   51 B(9,10,13)      =    125.991194    -0.000564    -1.640179   124.351016
	   52 B(10,9,17)      =    121.605334    -0.000076    -0.484271   121.121063
	   53 B(10,11,12)     =    121.409639    -0.000401    -1.242302   120.167336
	   54 B(10,11,20)     =    119.378727     0.000204     0.637033   120.015760
	   55 B(10,13,14)     =    106.422379    -0.001650    -4.709553   101.712827
	   56 B(11,10,13)     =    115.524687     0.000113     0.308491   115.833178
	   57 B(12,1,19)      =    119.731552    -0.000192    -0.899606   118.831946
	   58 B(12,11,20)     =    119.209185     0.000196     0.607467   119.816652
	   59 B(13,14,21)     =    109.618147     0.000351     1.518098   111.136245
	   60 B(13,14,22)     =    108.794585    -0.000648    -3.109077   105.685508
	   61 B(13,14,23)     =    109.357892     0.000445     2.103656   111.461548
	   62 B(21,14,22)     =    109.393970     0.000082    -0.154971   109.238998
	   63 B(21,14,23)     =    110.195264    -0.000211    -0.159140   110.036124
	   64 B(22,14,23)     =    109.458351    -0.000024    -0.299371   109.158980
	   65 D(1,2,3,4)      =    124.323419     0.000007     0.213419   124.536838
	   66 D(1,2,3,5)      =   -119.373835    -0.000004    -0.207991  -119.581826
	   67 D(1,2,3,6)      =      2.403761    -0.000003    -0.200336     2.203424
	   68 D(1,12,7,6)     =      0.756664    -0.000004    -0.414885     0.341780
	   69 D(1,12,7,8)     =   -178.896165    -0.000008    -0.820106  -179.716271
	   70 D(1,12,11,10)   =    179.272249     0.000002     0.194172   179.466422
	   71 D(1,12,11,20)   =     -1.300769     0.000005     0.584876    -0.715893
	   72 D(2,1,12,7)     =     -0.792807     0.000003     0.300350    -0.492457
	   73 D(2,1,12,11)    =    179.360253    -0.000000    -0.043528   179.316725
	   74 D(2,3,6,7)      =     -2.424557     0.000003     0.086502    -2.338055
	   75 D(2,3,6,16)     =    178.141331     0.000001    -0.033055   178.108276
	   76 D(3,2,1,12)     =     -0.865497     0.000001     0.026170    -0.839327
	   77 D(3,2,1,19)     =    179.533835     0.000001     0.059923   179.593758
	   78 D(3,6,7,8)      =   -179.476807     0.000005     0.625997  -178.850810
	   79 D(3,6,7,12)     =      0.874295     0.000001     0.216101     1.090396
	   80 D(4,3,2,15)     =    -56.125826     0.000010     0.480406   -55.645420
	   81 D(4,3,6,7)      =   -124.100827    -0.000003    -0.231886  -124.332712
	   82 D(4,3,6,16)     =     56.465060    -0.000005    -0.351442    56.113618
	   83 D(5,3,2,15)     =     60.176919    -0.000002     0.058996    60.235915
	   84 D(5,3,6,7)      =    119.072528     0.000002     0.063789   119.136316
	   85 D(5,3,6,16)     =    -60.361585     0.000000    -0.055768   -60.417353
	   86 D(6,3,2,15)     =   -178.045485    -0.000001     0.066651  -177.978834
	   87 D(6,7,8,9)      =    179.415950     0.000003     0.338001   179.753951
	   88 D(6,7,8,18)     =     -0.322085     0.000000     0.031634    -0.290451
	   89 D(6,7,12,11)    =   -179.395527    -0.000000    -0.069630  -179.465157
	   90 D(7,8,9,10)     =      0.510755    -0.000003    -0.364402     0.146353
	   91 D(7,8,9,17)     =   -179.370184    -0.000007    -0.734661  -180.104845
	   92 D(7,12,1,19)    =    178.781378     0.000004     0.273629   179.055007
	   93 D(7,12,11,10)   =     -0.575044    -0.000002    -0.149282    -0.724326
	   94 D(7,12,11,20)   =    178.851937     0.000001     0.241422   179.093360
	   95 D(8,7,6,16)     =     -0.050719     0.000005     0.723966     0.673247
	   96 D(8,7,12,11)    =      0.951644    -0.000004    -0.474851     0.476793
	   97 D(8,9,10,11)    =     -0.109294    -0.000003    -0.276643    -0.385938
	   98 D(8,9,10,13)    =   -178.528198    -0.000002    -0.260173  -178.788371
	   99 D(9,8,7,12)     =     -0.928259     0.000007     0.739672    -0.188586
	  100 D(9,10,11,12)   =      0.147156     0.000006     0.529000     0.676155
	  101 D(9,10,11,20)   =   -179.278874     0.000002     0.137708  -179.141165
	  102 *D(9,10,13,14)  =      4.670313     0.000000    -0.000000     4.670313
	  103 D(10,9,8,18)    =   -179.757740    -0.000000    -0.050446  -179.808186
	  104 *D(10,13,14,21) =     54.015321     0.000000     0.000000    54.015321
	  105 D(10,13,14,22)  =    173.598449    -0.000019    -1.191089   172.407360
	  106 D(10,13,14,23)  =    -66.894232    -0.000054    -2.229628   -69.123861
	  107 D(11,10,9,17)   =    179.767316     0.000001     0.102705   179.870020
	  108 *D(11,10,13,14) =   -173.789437     0.000000     0.000000  -173.789437
	  109 D(11,12,1,19)   =     -1.065562    -0.000000    -0.070249    -1.135811
	  110 D(12,1,2,15)    =    179.568214     0.000000    -0.222771   179.345442
	  111 D(12,7,6,16)    =   -179.699617     0.000001     0.314069  -179.385548
	  112 D(12,7,8,18)    =    179.333706     0.000004     0.433305   179.767011
	  113 D(12,11,10,13)  =    178.729552     0.000002     0.481247   179.210799
	  114 D(13,10,9,17)   =      1.348412     0.000002     0.119175     1.467587
	  115 D(13,10,11,20)  =     -0.696477    -0.000001     0.089956    -0.606521
	  116 D(15,2,1,19)    =     -0.032454     0.000000    -0.189018    -0.221473
	  117 D(17,9,8,18)    =      0.361321    -0.000004    -0.420705    -0.059384
	 ---------------------------------------------------------------------------
	Successfully symmetrized geometry.

  ==> Convergence Check <==

  Measures of convergence in internal coordinates in au.
  Criteria marked as inactive (o), active & met (*), and active & unmet ( ).
  --------------------------------------------------------------------------------------------- ~
   Step     Total Energy     Delta E     MAX Force     RMS Force      MAX Disp      RMS Disp    ~
  --------------------------------------------------------------------------------------------- ~
    Convergence Criteria             o    2.50e-03 *    1.70e-03 *    1.00e-02 *    6.70e-03 *  ~
  --------------------------------------------------------------------------------------------- ~
      1   -1188.11609373   -1.19e+03 o    2.81e-02      6.85e-03      8.22e-02      1.96e-02    ~
  ---------------------------------------------------------------------------------------------

	Writing optimization data to binary file.
	Structure for next step:
	Cartesian Geometry (in Angstrom)
	    N    -0.9408843829  -1.5282387469   0.3198254707
	    C    -2.2520353625  -1.1925783436   0.5266268535
	    C    -2.5823094893   0.3132979042   0.4555549592
	    F    -3.5627961517   0.4718398641  -0.4693460939
	    F    -3.0847401681   0.6727280398   1.6653424255
	    C    -1.4325467412   1.2900627116   0.1104103567
	    C    -0.0955052892   0.7156014611  -0.0732975957
	    C     0.9897509092   1.5456031310  -0.3625087748
	    C     2.2602606627   1.0300494199  -0.5351641491
	    C     2.4681503757  -0.3508123652  -0.4219513794
	    C     1.3927373928  -1.1931198395  -0.1279412214
	    C     0.1209339098  -0.6671465085   0.0376180727
	    S     4.0309287050  -1.1342950339  -0.5867040282
	    C     5.1384342801   0.2881938767  -0.7657607198
	    O    -3.1090796042  -2.0163550927   0.7555524113
	    O    -1.6886599223   2.4705773936   0.0178944124
	    H     3.0799429163   1.7037842532  -0.7605985350
	    H     0.8103191436   2.6118514039  -0.4497158370
	    H    -0.7601296631  -2.5235706236   0.3802633757
	    H     1.5526135131  -2.2639565443  -0.0254520594
	    H     5.0100311148   0.9940128674   0.0590680769
	    H     6.1494993586  -0.1196657211  -0.7356461848
	    H     4.9850624575   0.7966564733  -1.7210239884
			--------------------------
			 OPTKING Finished Execution 
			--------------------------

    Structure for next step:
    Molecular point group: c1
    Full point group: C1

    Geometry (in Angstrom), charge = 0, multiplicity = 1:

    N           -0.964564328487    -1.503148775613     0.304772550159
    C           -2.275715313179    -1.167488370967     0.511573933731
    C           -2.605989441287     0.338387882757     0.440502039198
    F           -3.586476107587     0.496929843222    -0.484399017591
    F           -3.108420122051     0.697818019752     1.650289510223
    C           -1.456226688665     1.315152694027     0.095357435304
    C           -0.119185231388     0.740691441192    -0.088350517749
    C            0.966070971239     1.570693114340    -0.377561698074
    C            2.236580729717     1.055139401283    -0.550217072983
    C            2.444470443523    -0.325722389318    -0.437004302914
    C            1.369057456447    -1.168029866911    -0.142994143702
    C            0.097253968454    -0.642056533803     0.022565150995
    S            4.007248778975    -1.109205061099    -0.601756952295
    C            5.114754358425     0.313283855102    -0.780813644597
    O           -3.132759558255    -1.991265123320     0.740499492465
    O           -1.712339870804     2.495667380604     0.002841490662
    H            3.056262986571     1.728874237223    -0.775651459835
    H            0.786639204992     2.636941391504    -0.464768760570
    H           -0.783809607961    -2.498480656186     0.365210455400
    H            1.528933577332    -2.238866575924    -0.040504981317
    H            4.986351192628     1.019102848648     0.044015155345
    H            6.125819440925    -0.094575744216    -0.750699109482
    H            4.961382535252     0.821746453707    -1.736076916976

gradient() will perform analytic gradient computation.

*** tstart() called on cpu-spot-dy-c5n2xlarge-1
*** at Tue Jun 22 04:12:13 2021

   => Loading Basis Set <=

    Name: 6-31+G*
    Role: ORBITAL
    Keyword: BASIS
    atoms 1             entry N          line   138 file /fsx/users/francis/anaconda3/envs/poltype-dev/share/psi4/basis/6-31pgs.gbs 
    atoms 2-3, 6-12, 14 entry C          line   119 file /fsx/users/francis/anaconda3/envs/poltype-dev/share/psi4/basis/6-31pgs.gbs 
    atoms 4-5           entry F          line   176 file /fsx/users/francis/anaconda3/envs/poltype-dev/share/psi4/basis/6-31pgs.gbs 
    atoms 13            entry S          line   344 file /fsx/users/francis/anaconda3/envs/poltype-dev/share/psi4/basis/6-31pgs.gbs 
    atoms 15-16         entry O          line   157 file /fsx/users/francis/anaconda3/envs/poltype-dev/share/psi4/basis/6-31pgs.gbs 
    atoms 17-23         entry H          line    46 file /fsx/users/francis/anaconda3/envs/poltype-dev/share/psi4/basis/6-31pgs.gbs 


         ---------------------------------------------------------
                                   SCF
               by Justin Turney, Rob Parrish, Andy Simmonett
                          and Daniel G. A. Smith
                              RKS Reference
                        8 Threads,  15258 MiB Core
         ---------------------------------------------------------

  ==> Geometry <==

    Molecular point group: c1
    Full point group: C1

    Geometry (in Angstrom), charge = 0, multiplicity = 1:

       Center              X                  Y                   Z               Mass       
    ------------   -----------------  -----------------  -----------------  -----------------
         N           -0.964564328487    -1.503148775613     0.304772550159    14.003074004430
         C           -2.275715313179    -1.167488370967     0.511573933731    12.000000000000
         C           -2.605989441287     0.338387882757     0.440502039198    12.000000000000
         F           -3.586476107587     0.496929843222    -0.484399017591    18.998403162730
         F           -3.108420122051     0.697818019752     1.650289510223    18.998403162730
         C           -1.456226688665     1.315152694027     0.095357435304    12.000000000000
         C           -0.119185231388     0.740691441192    -0.088350517749    12.000000000000
         C            0.966070971239     1.570693114340    -0.377561698074    12.000000000000
         C            2.236580729717     1.055139401283    -0.550217072983    12.000000000000
         C            2.444470443523    -0.325722389318    -0.437004302914    12.000000000000
         C            1.369057456447    -1.168029866911    -0.142994143702    12.000000000000
         C            0.097253968454    -0.642056533803     0.022565150995    12.000000000000
         S            4.007248778975    -1.109205061099    -0.601756952295    31.972071174400
         C            5.114754358425     0.313283855102    -0.780813644597    12.000000000000
         O           -3.132759558255    -1.991265123320     0.740499492465    15.994914619570
         O           -1.712339870804     2.495667380604     0.002841490662    15.994914619570
         H            3.056262986571     1.728874237223    -0.775651459835     1.007825032230
         H            0.786639204992     2.636941391504    -0.464768760570     1.007825032230
         H           -0.783809607961    -2.498480656186     0.365210455400     1.007825032230
         H            1.528933577332    -2.238866575924    -0.040504981317     1.007825032230
         H            4.986351192628     1.019102848648     0.044015155345     1.007825032230
         H            6.125819440925    -0.094575744216    -0.750699109482     1.007825032230
         H            4.961382535252     0.821746453707    -1.736076916976     1.007825032230

  Running in c1 symmetry.

  Rotational constants: A =      0.03956  B =      0.00836  C =      0.00719 [cm^-1]
  Rotational constants: A =   1186.09571  B =    250.72028  C =    215.43362 [MHz]
  Nuclear repulsion = 1190.410369975870481

  Charge       = 0
  Multiplicity = 1
  Electrons    = 124
  Nalpha       = 62
  Nbeta        = 62

  ==> Algorithm <==

  SCF Algorithm Type is DF.
  DIIS enabled.
  MOM disabled.
  Fractional occupation disabled.
  Guess Type is READ.
  Energy threshold   = 1.00e-08
  Density threshold  = 1.00e-08
  Integral threshold = 0.00e+00

  ==> Primary Basis <==

  Basis Set: 6-31+G*
    Blend: 6-31+G*
    Number of shells: 144
    Number of basis function: 322
    Number of Cartesian functions: 322
    Spherical Harmonics?: false
    Max angular momentum: 2

  ==> DFT Potential <==

   => Composite Functional: WB97X-D <= 

    wB97X-D Hyb-GGA Exchange-Correlation Functional

    J.-D. Chai and M. Head-Gordon, Phys. Chem. Chem. Phys. 10, 6615 (2008)

    Deriv               =              1
    GGA                 =           TRUE
    Meta                =          FALSE

    Exchange Hybrid     =           TRUE
    MP2 Hybrid          =          FALSE

   => Exchange-Correlation Functionals <=

    1.0000   wB97D range-separated functional

   => Exact (HF) Exchange <=

    0.7780            HF,LR [omega = 0.2000]
    0.2220               HF 

   => Molecular Quadrature <=

    Radial Scheme          =       TREUTLER
    Pruning Scheme         =           FLAT
    Nuclear Scheme         =       TREUTLER

    BS radius alpha        =              1
    Pruning alpha          =              1
    Radial Points          =             75
    Spherical Points       =            302
    Total Points           =         520850
    Total Blocks           =           3865
    Max Points             =            256
    Max Functions          =            283

   => WB97X-D: Empirical Dispersion <=

    Chai and Head-Gordon Dispersion Correction
    Chai, J.-D.; Head-Gordon, M. (2010), J. Chem. Phys., 132: 6615-6620

        s6 =       1.000000

   => Loading Basis Set <=

    Name: (6-31+G* AUX)
    Role: JKFIT
    Keyword: DF_BASIS_SCF
    atoms 1             entry N          line   252 file /fsx/users/francis/anaconda3/envs/poltype-dev/share/psi4/basis/heavy-aug-cc-pvdz-jkfit.gbs 
    atoms 2-3, 6-12, 14 entry C          line   194 file /fsx/users/francis/anaconda3/envs/poltype-dev/share/psi4/basis/heavy-aug-cc-pvdz-jkfit.gbs 
    atoms 4-5           entry F          line   368 file /fsx/users/francis/anaconda3/envs/poltype-dev/share/psi4/basis/heavy-aug-cc-pvdz-jkfit.gbs 
    atoms 13            entry S          line   730 file /fsx/users/francis/anaconda3/envs/poltype-dev/share/psi4/basis/heavy-aug-cc-pvdz-jkfit.gbs 
    atoms 15-16         entry O          line   310 file /fsx/users/francis/anaconda3/envs/poltype-dev/share/psi4/basis/heavy-aug-cc-pvdz-jkfit.gbs 
    atoms 17-23         entry H          line   116 file /fsx/users/francis/anaconda3/envs/poltype-dev/share/psi4/basis/heavy-aug-cc-pvdz-jkfit.gbs 

   => Loading Basis Set <=

    Name: 6-31+G*
    Role: ORBITAL
    Keyword: BASIS
    atoms 1             entry N          line   138 file /fsx/users/francis/anaconda3/envs/poltype-dev/share/psi4/basis/6-31pgs.gbs 
    atoms 2-3, 6-12, 14 entry C          line   119 file /fsx/users/francis/anaconda3/envs/poltype-dev/share/psi4/basis/6-31pgs.gbs 
    atoms 4-5           entry F          line   176 file /fsx/users/francis/anaconda3/envs/poltype-dev/share/psi4/basis/6-31pgs.gbs 
    atoms 13            entry S          line   344 file /fsx/users/francis/anaconda3/envs/poltype-dev/share/psi4/basis/6-31pgs.gbs 
    atoms 15-16         entry O          line   157 file /fsx/users/francis/anaconda3/envs/poltype-dev/share/psi4/basis/6-31pgs.gbs 
    atoms 17-23         entry H          line    46 file /fsx/users/francis/anaconda3/envs/poltype-dev/share/psi4/basis/6-31pgs.gbs 

  Reading orbitals from file 180, no projection.

  ==> Pre-Iterations <==

   -------------------------------------------------------
    Irrep   Nso     Nmo     Nalpha   Nbeta   Ndocc  Nsocc
   -------------------------------------------------------
     A        322     322       0       0       0       0
   -------------------------------------------------------
    Total     322     322      62      62      62       0
   -------------------------------------------------------

  ==> Integral Setup <==

  ==> DiskDFJK: Density-Fitted J/K Matrices <==

    J tasked:                  Yes
    K tasked:                  Yes
    wK tasked:                 Yes
    Omega:               2.000E-01
    OpenMP threads:              8
    Integrals threads:           8
    Memory [MiB]:             8427
    Algorithm:                Core
    Integral Cache:           NONE
    Schwarz Cutoff:          1E-12
    Fitting Condition:       1E-10

   => Auxiliary Basis Set <=

  Basis Set: (6-31+G* AUX)
    Blend: HEAVY-AUG-CC-PVDZ-JKFIT
    Number of shells: 523
    Number of basis function: 1840
    Number of Cartesian functions: 1840
    Spherical Harmonics?: false
    Max angular momentum: 3

  Cached 100.0% of DFT collocation blocks in 2.946 [GiB].

  Minimum eigenvalue in the overlap matrix is 4.7365239009E-07.
  Using Symmetric Orthogonalization.

  SCF Guess: Orbitals guess was supplied from a previous computation.

  ==> Iterations <==

                           Total Energy        Delta E     RMS |[F,P]|

   @DF-RKS iter   0: -1188.28712744140830   -1.18829e+03   1.18045e-03 
   @DF-RKS iter   1: -1188.11878721323978    1.68340e-01   2.32042e-04 DIIS
   @DF-RKS iter   2: -1188.11878882530709   -1.61207e-06   2.75221e-04 DIIS
   @DF-RKS iter   3: -1188.12215585135505   -3.36703e-03   5.52070e-05 DIIS
   @DF-RKS iter   4: -1188.12227080899970   -1.14958e-04   1.85577e-05 DIIS
   @DF-RKS iter   5: -1188.12229019539927   -1.93864e-05   4.68311e-06 DIIS
   @DF-RKS iter   6: -1188.12229186062973   -1.66523e-06   1.41071e-06 DIIS
   @DF-RKS iter   7: -1188.12229205088761   -1.90258e-07   6.85665e-07 DIIS
   @DF-RKS iter   8: -1188.12229210221585   -5.13282e-08   2.46808e-07 DIIS
   @DF-RKS iter   9: -1188.12229211511180   -1.28960e-08   1.24529e-07 DIIS
   @DF-RKS iter  10: -1188.12229211737190   -2.26009e-09   6.38470e-08 DIIS
   @DF-RKS iter  11: -1188.12229211810495   -7.33053e-10   2.50661e-08 DIIS
   @DF-RKS iter  12: -1188.12229211820681   -1.01863e-10   1.21837e-08 DIIS
   @DF-RKS iter  13: -1188.12229211823501   -2.81943e-11   5.43190e-09 DIIS
  Energy and wave function converged.


  ==> Post-Iterations <==

    Orbital Energies [Eh]
    ---------------------

    Doubly Occupied:                                                      

       1A    -89.085309     2A    -24.870976     3A    -24.870021  
       4A    -19.301220     5A    -19.291564     6A    -14.540277  
       7A    -10.499202     8A    -10.452299     9A    -10.427191  
      10A    -10.404735    11A    -10.386085    12A    -10.356268  
      13A    -10.350013    14A    -10.346799    15A    -10.346161  
      16A    -10.340478    17A     -8.103049    18A     -6.053651  
      19A     -6.049330    20A     -6.043243    21A     -1.389169  
      22A     -1.328058    23A     -1.192362    24A     -1.181108  
      25A     -1.098937    26A     -1.007649    27A     -0.946164  
      28A     -0.908031    29A     -0.888842    30A     -0.869222  
      31A     -0.800579    32A     -0.765728    33A     -0.753731  
      34A     -0.745804    35A     -0.697025    36A     -0.683280  
      37A     -0.668851    38A     -0.646301    39A     -0.629588  
      40A     -0.592220    41A     -0.588321    42A     -0.568245  
      43A     -0.562630    44A     -0.558468    45A     -0.555007  
      46A     -0.554215    47A     -0.549747    48A     -0.534734  
      49A     -0.518028    50A     -0.515680    51A     -0.507073  
      52A     -0.498448    53A     -0.489051    54A     -0.487470  
      55A     -0.475114    56A     -0.442236    57A     -0.436675  
      58A     -0.398433    59A     -0.394312    60A     -0.363967  
      61A     -0.340156    62A     -0.319578  

    Virtual:                                                              

      63A     -0.041956    64A      0.015695    65A      0.039569  
      66A      0.045690    67A      0.058247    68A      0.066418  
      69A      0.068806    70A      0.073085    71A      0.079877  
      72A      0.088716    73A      0.094266    74A      0.096837  
      75A      0.105539    76A      0.112128    77A      0.114703  
      78A      0.117294    79A      0.117852    80A      0.137206  
      81A      0.138249    82A      0.141619    83A      0.146637  
      84A      0.151122    85A      0.161784    86A      0.164891  
      87A      0.173570    88A      0.177147    89A      0.179420  
      90A      0.180465    91A      0.182327    92A      0.191656  
      93A      0.198034    94A      0.201761    95A      0.208212  
      96A      0.210640    97A      0.218321    98A      0.221562  
      99A      0.224346   100A      0.230785   101A      0.234165  
     102A      0.239544   103A      0.243330   104A      0.245238  
     105A      0.247142   106A      0.251172   107A      0.257719  
     108A      0.265004   109A      0.266311   110A      0.278505  
     111A      0.279666   112A      0.289700   113A      0.290202  
     114A      0.295681   115A      0.299878   116A      0.306707  
     117A      0.309472   118A      0.317491   119A      0.323901  
     120A      0.328168   121A      0.334020   122A      0.338024  
     123A      0.340964   124A      0.345222   125A      0.360658  
     126A      0.362802   127A      0.366279   128A      0.376879  
     129A      0.385898   130A      0.390892   131A      0.394103  
     132A      0.397299   133A      0.401440   134A      0.405186  
     135A      0.413371   136A      0.420119   137A      0.435966  
     138A      0.441804   139A      0.448503   140A      0.454506  
     141A      0.464678   142A      0.476199   143A      0.478310  
     144A      0.488375   145A      0.511076   146A      0.519040  
     147A      0.531852   148A      0.534651   149A      0.542948  
     150A      0.558723   151A      0.576919   152A      0.582560  
     153A      0.593700   154A      0.610198   155A      0.617015  
     156A      0.635660   157A      0.653562   158A      0.673022  
     159A      0.690533   160A      0.713056   161A      0.727402  
     162A      0.745454   163A      0.754977   164A      0.759273  
     165A      0.770807   166A      0.778426   167A      0.789059  
     168A      0.801914   169A      0.809259   170A      0.823665  
     171A      0.830217   172A      0.851951   173A      0.865596  
     174A      0.877111   175A      0.890018   176A      0.896902  
     177A      0.918332   178A      0.931216   179A      0.931883  
     180A      0.939205   181A      0.961558   182A      0.972280  
     183A      0.978272   184A      0.992050   185A      1.021028  
     186A      1.025888   187A      1.047534   188A      1.048721  
     189A      1.059127   190A      1.074848   191A      1.099628  
     192A      1.113980   193A      1.124674   194A      1.159557  
     195A      1.173506   196A      1.175763   197A      1.205437  
     198A      1.210635   199A      1.221794   200A      1.227202  
     201A      1.249176   202A      1.252922   203A      1.273395  
     204A      1.283172   205A      1.285699   206A      1.326850  
     207A      1.330319   208A      1.336611   209A      1.348883  
     210A      1.399224   211A      1.407858   212A      1.416917  
     213A      1.419873   214A      1.426036   215A      1.450262  
     216A      1.453980   217A      1.465776   218A      1.466813  
     219A      1.480830   220A      1.490877   221A      1.512620  
     222A      1.526407   223A      1.527898   224A      1.546535  
     225A      1.584914   226A      1.604308   227A      1.631035  
     228A      1.661894   229A      1.675518   230A      1.686096  
     231A      1.719216   232A      1.749654   233A      1.757213  
     234A      1.761327   235A      1.763221   236A      1.770549  
     237A      1.777630   238A      1.789817   239A      1.793698  
     240A      1.831433   241A      1.841629   242A      1.879728  
     243A      1.895296   244A      1.900146   245A      1.917411  
     246A      1.926418   247A      1.928785   248A      1.967879  
     249A      1.971812   250A      1.975908   251A      1.985453  
     252A      2.023643   253A      2.047426   254A      2.057365  
     255A      2.067411   256A      2.071898   257A      2.094202  
     258A      2.121204   259A      2.121941   260A      2.144764  
     261A      2.177912   262A      2.180517   263A      2.191520  
     264A      2.217819   265A      2.225625   266A      2.237753  
     267A      2.260954   268A      2.265427   269A      2.277921  
     270A      2.288287   271A      2.313450   272A      2.323587  
     273A      2.328709   274A      2.357397   275A      2.364006  
     276A      2.386374   277A      2.395848   278A      2.434870  
     279A      2.481367   280A      2.490796   281A      2.532368  
     282A      2.561293   283A      2.607813   284A      2.656290  
     285A      2.692659   286A      2.704838   287A      2.736169  
     288A      2.766451   289A      2.778783   290A      2.791892  
     291A      2.797427   292A      2.842939   293A      2.857502  
     294A      2.885166   295A      2.934391   296A      2.973145  
     297A      2.989471   298A      3.057525   299A      3.156971  
     300A      3.191915   301A      3.228433   302A      3.259449  
     303A      3.374501   304A      3.428594   305A      3.518331  
     306A      3.527525   307A      4.043487   308A      4.303198  
     309A      4.342650   310A      4.355931   311A      4.368799  
     312A      4.395581   313A      4.431435   314A      4.489551  
     315A      4.495156   316A      4.534961   317A      4.604521  
     318A      4.823980   319A      4.886047   320A      5.167653  
     321A      5.721013   322A      7.261953  

    Final Occupation by Irrep:
              A 
    DOCC [    62 ]

  @DF-RKS Final Energy: -1188.12229211823501

   => Energetics <=

    Nuclear Repulsion Energy =           1190.4103699758704806
    One-Electron Energy =               -3994.7830573611799991
    Two-Electron Energy =                1705.8323014605450680
    DFT Exchange-Correlation Energy =     -89.5681575574752742
    Empirical Dispersion Energy =          -0.0137486359953871
    VV10 Nonlocal Energy =                  0.0000000000000000
    Total Energy =                      -1188.1222921182347818

Computation Completed


Properties will be evaluated at   0.000000,   0.000000,   0.000000 [a0]

Properties computed using the SCF density matrix

  Nuclear Dipole Moment: [e a0]
     X:    25.7705      Y:     0.1392      Z:    -4.2615

  Electronic Dipole Moment: [e a0]
     X:   -22.5728      Y:    -0.5008      Z:     3.7792

  Dipole Moment: [e a0]
     X:     3.1977      Y:    -0.3616      Z:    -0.4823     Total:     3.2541

  Dipole Moment: [D]
     X:     8.1278      Y:    -0.9191      Z:    -1.2260     Total:     8.2710


*** tstop() called on cpu-spot-dy-c5n2xlarge-1 at Tue Jun 22 04:13:16 2021
Module time:
	user time   =     472.24 seconds =       7.87 minutes
	system time =       6.80 seconds =       0.11 minutes
	total time  =         63 seconds =       1.05 minutes
Total time:
	user time   =    1187.81 seconds =      19.80 minutes
	system time =      20.99 seconds =       0.35 minutes
	total time  =        163 seconds =       2.72 minutes

*** tstart() called on cpu-spot-dy-c5n2xlarge-1
*** at Tue Jun 22 04:13:16 2021


         ------------------------------------------------------------
                                   SCF GRAD                          
                          Rob Parrish, Justin Turney,                
                       Andy Simmonett, and Alex Sokolov              
         ------------------------------------------------------------

  ==> Geometry <==

    Molecular point group: c1
    Full point group: C1

    Geometry (in Angstrom), charge = 0, multiplicity = 1:

       Center              X                  Y                   Z               Mass       
    ------------   -----------------  -----------------  -----------------  -----------------
         N           -0.964564328487    -1.503148775613     0.304772550159    14.003074004430
         C           -2.275715313179    -1.167488370967     0.511573933731    12.000000000000
         C           -2.605989441287     0.338387882757     0.440502039198    12.000000000000
         F           -3.586476107587     0.496929843222    -0.484399017591    18.998403162730
         F           -3.108420122051     0.697818019752     1.650289510223    18.998403162730
         C           -1.456226688665     1.315152694027     0.095357435304    12.000000000000
         C           -0.119185231388     0.740691441192    -0.088350517749    12.000000000000
         C            0.966070971239     1.570693114340    -0.377561698074    12.000000000000
         C            2.236580729717     1.055139401283    -0.550217072983    12.000000000000
         C            2.444470443523    -0.325722389318    -0.437004302914    12.000000000000
         C            1.369057456447    -1.168029866911    -0.142994143702    12.000000000000
         C            0.097253968454    -0.642056533803     0.022565150995    12.000000000000
         S            4.007248778975    -1.109205061099    -0.601756952295    31.972071174400
         C            5.114754358425     0.313283855102    -0.780813644597    12.000000000000
         O           -3.132759558255    -1.991265123320     0.740499492465    15.994914619570
         O           -1.712339870804     2.495667380604     0.002841490662    15.994914619570
         H            3.056262986571     1.728874237223    -0.775651459835     1.007825032230
         H            0.786639204992     2.636941391504    -0.464768760570     1.007825032230
         H           -0.783809607961    -2.498480656186     0.365210455400     1.007825032230
         H            1.528933577332    -2.238866575924    -0.040504981317     1.007825032230
         H            4.986351192628     1.019102848648     0.044015155345     1.007825032230
         H            6.125819440925    -0.094575744216    -0.750699109482     1.007825032230
         H            4.961382535252     0.821746453707    -1.736076916976     1.007825032230

  Nuclear repulsion = 1190.410369975870481

  ==> Basis Set <==

  Basis Set: 6-31+G*
    Blend: 6-31+G*
    Number of shells: 144
    Number of basis function: 322
    Number of Cartesian functions: 322
    Spherical Harmonics?: false
    Max angular momentum: 2

  ==> DFJKGrad: Density-Fitted SCF Gradients <==

    Gradient:                    1
    J tasked:                  Yes
    K tasked:                  Yes
    wK tasked:                 Yes
    Omega:               2.000E-01
    OpenMP threads:              8
    Integrals threads:           8
    Memory [MiB]:            11444
    Schwarz Cutoff:          0E+00
    Fitting Condition:       1E-10

   => Auxiliary Basis Set <=

  Basis Set: (6-31+G* AUX)
    Blend: HEAVY-AUG-CC-PVDZ-JKFIT
    Number of shells: 523
    Number of basis function: 1840
    Number of Cartesian functions: 1840
    Spherical Harmonics?: false
    Max angular momentum: 3

  ==> DFT Potential <==

   => Composite Functional: WB97X-D <= 

    wB97X-D Hyb-GGA Exchange-Correlation Functional

    J.-D. Chai and M. Head-Gordon, Phys. Chem. Chem. Phys. 10, 6615 (2008)

    Deriv               =              1
    GGA                 =           TRUE
    Meta                =          FALSE

    Exchange Hybrid     =           TRUE
    MP2 Hybrid          =          FALSE

   => Exchange-Correlation Functionals <=

    1.0000   wB97D range-separated functional

   => Exact (HF) Exchange <=

    0.7780            HF,LR [omega = 0.2000]
    0.2220               HF 

   => Molecular Quadrature <=

    Radial Scheme          =       TREUTLER
    Pruning Scheme         =           FLAT
    Nuclear Scheme         =       TREUTLER

    BS radius alpha        =              1
    Pruning alpha          =              1
    Radial Points          =             75
    Spherical Points       =            302
    Total Points           =         520850
    Total Blocks           =           3865
    Max Points             =            256
    Max Functions          =            283


  -Total Gradient:
     Atom            X                  Y                   Z
    ------   -----------------  -----------------  -----------------
       1        0.001722556831     0.002751374334    -0.000896892262
       2        0.000719207001     0.002442970050    -0.000028553494
       3        0.005221882681    -0.000892183233     0.000025058273
       4       -0.001830514345     0.000427877081    -0.001120725223
       5       -0.001008207801     0.000315768108     0.000563002036
       6       -0.002679668697    -0.002377555704     0.000808293247
       7        0.001763882320    -0.001140117996    -0.000160303279
       8        0.000140899837     0.000024339651    -0.000070519960
       9       -0.001655233000    -0.003272908267     0.001677022275
      10        0.000656871755     0.003096757411    -0.002867579838
      11       -0.000057604868     0.001280739721     0.001064446890
      12        0.003393792888    -0.000139568064    -0.000499447178
      13       -0.002532955754    -0.003622879990     0.000569599045
      14       -0.000031371480     0.001701458904     0.000766876758
      15       -0.001005502271    -0.001886282127     0.000248626362
      16        0.000595037328     0.000575799151    -0.000083095607
      17        0.001837535841     0.000585616088     0.000038135416
      18        0.000322738103    -0.000614245693    -0.000135268558
      19       -0.001014090610    -0.000406363717     0.000197589804
      20       -0.000081730411    -0.000227440765     0.000120101056
      21       -0.001639443002     0.001169849942    -0.000567151202
      22       -0.001284076965    -0.000506934687     0.000198538604
      23       -0.000721706817     0.000272796997     0.000084905988


*** tstop() called on cpu-spot-dy-c5n2xlarge-1 at Tue Jun 22 04:13:40 2021
Module time:
	user time   =     149.30 seconds =       2.49 minutes
[...]
	   Coordinate                Previous        Force       Change         New 
	   ----------                --------       ------       ------       ------
	    1 R(1,2)          =      1.369225     0.000733     0.000240     1.369465
	    2 R(1,12)         =      1.397541    -0.000284    -0.000220     1.397321
	    3 R(1,19)         =      1.012913     0.000213     0.000287     1.013200
	    4 R(2,3)          =      1.548764    -0.001437    -0.001183     1.547581
	    5 R(2,15)         =      1.209165    -0.001047    -0.000401     1.208765
	    6 R(3,4)          =      1.346603     0.000099    -0.000127     1.346477
	    7 R(3,5)          =      1.364367    -0.001487    -0.000493     1.363874
	    8 R(3,6)          =      1.554360    -0.001557    -0.001349     1.553011
	    9 R(6,7)          =      1.466432    -0.000438    -0.000332     1.466099
	   10 R(6,16)         =      1.210887    -0.000652    -0.000324     1.210563
	   11 R(7,8)          =      1.399578    -0.002094    -0.000710     1.398868
	   12 R(7,12)         =      1.404911     0.001734     0.000438     1.405349
	   13 R(8,9)          =      1.382882     0.001572     0.000325     1.383207
	   14 R(8,18)         =      1.085954    -0.000230    -0.000183     1.085771
	   15 R(9,10)         =      1.405630    -0.003448    -0.001407     1.404222
	   16 R(9,17)         =      1.083307    -0.000094    -0.000249     1.083058
	   17 R(10,11)        =      1.397848     0.003001     0.001205     1.399053
	   18 R(10,13)        =      1.762004    -0.000592    -0.000335     1.761669
	   19 R(11,12)        =      1.391090    -0.001799    -0.000472     1.390618
	   20 R(11,20)        =      1.087399    -0.000375    -0.000234     1.087165
	   21 R(13,14)        =      1.807400     0.003369     0.002219     1.809619
	   22 R(14,21)        =      1.092857    -0.000265    -0.000132     1.092725
	   23 R(14,22)        =      1.092122    -0.000199     0.000041     1.092164
	   24 R(14,23)        =      1.092941    -0.000299    -0.000141     1.092800
	   25 B(1,2,3)        =    115.695924     0.000004     0.048532   115.744456
	   26 B(1,2,15)       =    122.892710     0.000003     0.037220   122.929931
	   27 B(1,12,7)       =    120.933425    -0.000010    -0.077380   120.856045
	   28 B(1,12,11)      =    118.943397     0.000005     0.040027   118.983423
	   29 B(2,1,12)       =    127.000219     0.000001    -0.008204   126.992014
	   30 B(2,1,19)       =    114.584349    -0.000003    -0.026420   114.557930
	   31 B(2,3,4)        =    108.018565     0.000008     0.087305   108.105869
	   32 B(2,3,5)        =    106.494996    -0.000004    -0.027677   106.467319
	   33 B(2,3,6)        =    117.704403    -0.000001    -0.032538   117.671866
	   34 B(3,2,15)       =    121.383204    -0.000006    -0.082578   121.300627
	   35 B(3,6,7)        =    116.661127     0.000006     0.048552   116.709679
	   36 B(3,6,16)       =    118.572552    -0.000008    -0.082891   118.489662
	   37 B(4,3,5)        =    108.277410     0.000002     0.045267   108.322677
	   38 B(4,3,6)        =    109.211185    -0.000006    -0.061733   109.149451
	   39 B(5,3,6)        =    106.782148     0.000002    -0.004303   106.777846
	   40 B(6,7,8)        =    120.215853     0.000004     0.019119   120.234973
	   41 B(6,7,12)       =    120.974514    -0.000001     0.009217   120.983731
	   42 B(7,6,16)       =    124.736873     0.000002     0.037465   124.774338
	   43 B(7,8,9)        =    121.476143     0.000001     0.013429   121.489571
	   44 B(7,8,18)       =    117.790685     0.000014     0.126570   117.917255
	   45 B(7,12,11)      =    120.122922     0.000005     0.037319   120.160241
	   46 B(8,7,12)       =    118.805157    -0.000004    -0.028264   118.776893
	   47 B(8,9,10)       =    119.456683     0.000004     0.020742   119.477425
	   48 B(8,9,17)       =    119.521673    -0.000009    -0.061197   119.460476
	   49 B(9,8,18)       =    120.733167    -0.000015    -0.140038   120.593129
	   50 B(9,10,11)      =    119.662112     0.000001     0.011624   119.673736
	   51 B(9,10,13)      =    124.179100     0.000016     0.111882   124.290982
	   52 B(10,9,17)      =    121.018205     0.000005     0.039165   121.057370
	   53 B(10,11,12)     =    120.472718    -0.000007    -0.055096   120.417622
	   54 B(10,11,20)     =    119.788553     0.000005     0.068634   119.857187
	   55 B(10,13,14)     =    103.617882    -0.000007    -0.041699   103.576184
	   56 B(11,10,13)     =    116.141093    -0.000017    -0.123503   116.017590
	   57 B(12,1,19)      =    118.394050     0.000002     0.029709   118.423759
	   58 B(12,11,20)     =    119.738592     0.000002    -0.013496   119.725097
	   59 B(13,14,21)     =    111.451116    -0.000010    -0.071872   111.379244
	   60 B(13,14,22)     =    105.980555    -0.000014    -0.155572   105.824983
	   61 B(13,14,23)     =    111.657436    -0.000003    -0.005851   111.651585
	   62 B(21,14,22)     =    108.886388     0.000010     0.081425   108.967813
	   63 B(21,14,23)     =    109.973114     0.000008     0.079813   110.052927
	   64 B(22,14,23)     =    108.748238     0.000009     0.070023   108.818261
	   65 D(1,2,3,4)      =    134.719593    -0.000000     0.062427   134.782020
	   66 D(1,2,3,5)      =   -109.159395     0.000001     0.143635  -109.015760
	   67 D(1,2,3,6)      =     10.550793     0.000000     0.095850    10.646643
	   68 D(1,12,7,6)     =     -0.216741    -0.000000    -0.015265    -0.232006
	   69 D(1,12,7,8)     =   -179.448677    -0.000000    -0.021709  -179.470387
	   70 D(1,12,11,10)   =    179.278659    -0.000000     0.024590   179.303250
	   71 D(1,12,11,20)   =     -0.856047     0.000000     0.047525    -0.808522
	   72 D(2,1,12,7)     =     -1.153653    -0.000000     0.072026    -1.081628
	   73 D(2,1,12,11)    =    179.030361     0.000000     0.084053   179.114414
	   74 D(2,3,6,7)      =    -11.801500    -0.000001    -0.052019   -11.853519
	   75 D(2,3,6,16)     =    170.078129    -0.000001    -0.155328   169.922801
	   76 D(3,2,1,12)     =     -4.273222    -0.000000    -0.110857    -4.384079
	   77 D(3,2,1,19)     =    177.449514     0.000001     0.076336   177.525850
	   78 D(3,6,7,8)      =   -174.025473     0.000000     0.020887  -174.004585
	   79 D(3,6,7,12)     =      6.753371     0.000000     0.014712     6.768083
	   80 D(4,3,2,15)     =    -47.157158     0.000002     0.172140   -46.985018
	   81 D(4,3,6,7)      =   -135.371796    -0.000001    -0.093081  -135.464877
	   82 D(4,3,6,16)     =     46.507833    -0.000002    -0.196391    46.311442
	   83 D(5,3,2,15)     =     68.963854     0.000003     0.253348    69.217202
	   84 D(5,3,6,7)      =    107.757841    -0.000002    -0.112274   107.645566
	   85 D(5,3,6,16)     =    -70.362530    -0.000002    -0.215584   -70.578115
	   86 D(6,3,2,15)     =   -171.325958     0.000003     0.205563  -171.120394
	   87 D(6,7,8,9)      =   -179.581499     0.000000    -0.018564  -179.600064
	   88 D(6,7,8,18)     =      0.392019     0.000001     0.084320     0.476339
	   89 D(6,7,12,11)    =    179.597085    -0.000000    -0.027432   179.569654
	   90 D(7,8,9,10)     =      0.484089     0.000000     0.056084     0.540173
	   91 D(7,8,9,17)     =    179.816429    -0.000000    -0.058844   179.757585
	   92 D(7,12,1,19)    =    177.065524    -0.000001    -0.122455   176.943069
	   93 D(7,12,11,10)   =     -0.538855     0.000000     0.036749    -0.502106
	   94 D(7,12,11,20)   =    179.326439     0.000001     0.059683   179.386122
	   95 D(8,7,6,16)     =      3.965766     0.000001     0.128943     4.094709
	   96 D(8,7,12,11)    =      0.365149    -0.000000    -0.033876     0.331273
	   97 D(8,9,10,11)    =     -0.642376    -0.000000    -0.053034    -0.695410
	   98 D(8,9,10,13)    =   -179.051148    -0.000000    -0.051170  -179.102318
	   99 D(9,8,7,12)     =     -0.343573     0.000000    -0.012244    -0.355817
	  100 D(9,10,11,12)   =      0.675353     0.000000     0.007056     0.682408
	  101 D(9,10,11,20)   =   -179.189874    -0.000000    -0.015799  -179.205673
	  102 *D(9,10,13,14)  =      4.670313    -0.000000     0.000000     4.670313
	  103 D(10,9,8,18)    =   -179.488656    -0.000000    -0.049599  -179.538255
	  104 *D(10,13,14,21) =     54.015321     0.000000     0.000000    54.015321
	  105 D(10,13,14,22)  =    172.328398    -0.000000    -0.033888   172.294510
	  106 D(10,13,14,23)  =    -69.413654    -0.000000    -0.046770   -69.460423
	  107 D(11,10,9,17)   =   -179.964458     0.000000     0.064467  -179.899991
	  108 *D(11,10,13,14) =   -173.789437     0.000000     0.000000  -173.789437
	  109 D(11,12,1,19)   =     -2.750461    -0.000001    -0.110428    -2.860889
	  110 D(12,1,2,15)    =    177.634864    -0.000002    -0.220069   177.414795
	  111 D(12,7,6,16)    =   -175.255390     0.000001     0.122768  -175.132623
	  112 D(12,7,8,18)    =    179.629945     0.000001     0.090641   179.720586
	  113 D(12,11,10,13)  =    179.208986     0.000000     0.008834   179.217820
	  114 D(13,10,9,17)   =      1.626770     0.000000     0.066331     1.693101
	  115 D(13,10,11,20)  =     -0.656240    -0.000000    -0.014021    -0.670260
	  116 D(15,2,1,19)    =     -0.642400    -0.000002    -0.032876    -0.675275
	  117 D(17,9,8,18)    =     -0.156317    -0.000001    -0.164527    -0.320844
	  118 R(1,X)          =     -0.979699     0.000357     0.000343    -0.979356
	  119 R(1,Y)          =     -1.513250     0.000251     0.000286    -1.512963
	  120 R(1,Z)          =      0.246896     0.000583     0.001445     0.248341
	  121 R(2,X)          =     -2.296918    -0.000086     0.000170    -2.296748
	  122 R(2,Y)          =     -1.182257     0.001529     0.001255    -1.181002
	  123 R(2,Z)          =      0.420547     0.000564     0.000173     0.420720
	  124 R(3,X)          =     -2.612721     0.000293     0.000238    -2.612483
	  125 R(3,Y)          =      0.333938     0.000142     0.000059     0.333996
	  126 R(3,Z)          =      0.430069     0.000320     0.000471     0.430541
	  127 R(4,X)          =     -3.695076     0.000541     0.000398    -3.694678
	  128 R(4,Y)          =      0.538848     0.002219     0.002079     0.540926
	  129 R(4,Z)          =     -0.344437     0.000352     0.001004    -0.343433
	  130 R(5,X)          =     -2.939733     0.001491     0.002218    -2.937514
	  131 R(5,Y)          =      0.653461    -0.000964    -0.000606     0.652855
	  132 R(5,Z)          =      1.715552    -0.000679     0.000616     1.716168
	  133 R(6,X)          =     -1.482769    -0.000666    -0.000574    -1.483343
	  134 R(6,Y)          =      1.310162    -0.001269    -0.001306     1.308856
	  135 R(6,Z)          =     -0.001473     0.000223     0.000120    -0.001353
	  136 R(7,X)          =     -0.135840    -0.000473    -0.000536    -0.136376
	  137 R(7,Y)          =      0.743829     0.000339    -0.000384     0.743446
	  138 R(7,Z)          =     -0.125869     0.000159     0.000262    -0.125607
	  139 R(8,X)          =      0.957442    -0.002232    -0.001326     0.956116
	  140 R(8,Y)          =      1.577630    -0.000758    -0.000577     1.577053
	  141 R(8,Z)          =     -0.387264     0.000512     0.000140    -0.387125
	  142 R(9,X)          =      2.237305    -0.000582    -0.000710     2.236595
	  143 R(9,Y)          =      1.070479    -0.000816    -0.000027     1.070452
	  144 R(9,Z)          =     -0.518078     0.000265     0.000607    -0.517471
	  145 R(10,X)         =      2.448032     0.000493     0.000182     2.448214
	  146 R(10,Y)         =     -0.313936     0.002794     0.001486    -0.312450
	  147 R(10,Z)         =     -0.396487    -0.000347     0.000009    -0.396478
	  148 R(11,X)         =      1.365528    -0.000589     0.000177     1.365705
	  149 R(11,Y)         =     -1.157848    -0.000527    -0.000365    -1.158213
	  150 R(11,Z)         =     -0.131958     0.000488     0.000447    -0.131511
	  151 R(12,X)         =      0.081462     0.001099     0.000624     0.082086
	  152 R(12,Y)         =     -0.638679    -0.001153    -0.000601    -0.639280
	  153 R(12,Z)         =     -0.002471     0.000409     0.000762    -0.001708
	  154 R(13,X)         =      4.025656    -0.001711    -0.001041     4.024615
	  155 R(13,Y)         =     -1.089385    -0.000388    -0.000194    -1.089579
	  156 R(13,Z)         =     -0.516658    -0.000079    -0.000276    -0.516935
	  157 R(14,X)         =      5.172074     0.001322     0.000945     5.173018
	  158 R(14,Y)         =      0.299600     0.001441     0.001025     0.300625
	  159 R(14,Z)         =     -0.668778    -0.000542    -0.000548    -0.669326
	  160 R(15,X)         =     -3.164146    -0.000735    -0.001138    -3.165284
	  161 R(15,Y)         =     -2.007178     0.003325     0.002581    -2.004597
	  162 R(15,Z)         =      0.592313    -0.001456    -0.002925     0.589389
	  163 R(16,X)         =     -1.759934    -0.002297    -0.002355    -1.762289
	  164 R(16,Y)         =      2.475900    -0.002439    -0.002409     2.473491
	  165 R(16,Z)         =     -0.176061    -0.000481    -0.002146    -0.178207
	  166 R(17,X)         =      3.060171    -0.002195    -0.002128     3.058043
	  167 R(17,Y)         =      1.744493     0.000880     0.000961     1.745453
	  168 R(17,Z)         =     -0.723380    -0.000137    -0.000513    -0.723892
	  169 R(18,X)         =      0.769807     0.000724     0.000945     0.770752
	  170 R(18,Y)         =      2.642725    -0.000484    -0.000304     2.642420
	  171 R(18,Z)         =     -0.485559     0.000372     0.000810    -0.484749
	  172 R(19,X)         =     -0.786453    -0.001151    -0.001000    -0.787454
	  173 R(19,Y)         =     -2.506868    -0.000268    -0.000312    -2.507180
	  174 R(19,Z)         =      0.283924     0.000379     0.000219     0.284143
	  175 R(20,X)         =      1.528206    -0.000329    -0.000096     1.528110
	  176 R(20,Y)         =     -2.227616    -0.000136    -0.000216    -2.227831
	  177 R(20,Z)         =     -0.024388     0.000202    -0.000026    -0.024414
	  178 R(21,X)         =      5.042581     0.000267     0.000439     5.043020
	  179 R(21,Y)         =      1.015822     0.000212     0.000130     1.015952
	  180 R(21,Z)         =      0.146449     0.000015    -0.000021     0.146428
	  181 R(22,X)         =      6.174387    -0.000385    -0.000382     6.174006
	  182 R(22,Y)         =     -0.129594    -0.001942    -0.002066    -0.131659
	  183 R(22,Z)         =     -0.606399     0.000104     0.000133    -0.606267
	  184 R(23,X)         =      5.066234     0.001288     0.001475     5.067709
	  185 R(23,Y)         =      0.806405     0.000615     0.000528     0.806934
	  186 R(23,Z)         =     -1.631309    -0.000634    -0.000708    -1.632017
	 ---------------------------------------------------------------------------
	Successfully symmetrized geometry.

  ==> Convergence Check <==

  Measures of convergence in internal coordinates in au.
  Criteria marked as inactive (o), active & met (*), and active & unmet ( ).
  ---------------------------------------------------------------------------------------------
   Step     Total Energy     Delta E     MAX Force     RMS Force      MAX Disp      RMS Disp   
  ---------------------------------------------------------------------------------------------
    Convergence Criteria             o    2.50e-03 *    1.70e-03 *    1.00e-02 *    6.70e-03 *
  ---------------------------------------------------------------------------------------------
      2   -1188.12295697   -5.67e-05 o    4.19e-04 *    1.17e-04 *    5.53e-03 *    1.70e-03 *  ~
  ---------------------------------------------------------------------------------------------


  **** Optimization is complete! (in 2 steps) ****

  ==> Optimization Summary <==

  Measures of convergence in internal coordinates in au.
  --------------------------------------------------------------------------------------------------------------- ~
   Step         Total Energy             Delta E       MAX Force       RMS Force        MAX Disp        RMS Disp  ~
  --------------------------------------------------------------------------------------------------------------- ~
      1   -1188.122900219504  -1188.122900219504      0.00113714      0.00027500      0.01234791      0.00264869  ~
      2   -1188.122956966529     -0.000056747025      0.00041851      0.00011732      0.00552658      0.00169763  ~
  --------------------------------------------------------------------------------------------------------------- ~

	Writing optimization data to binary file.
	Final energy is  -1188.1229569665293
	Final (previous) structure:
	Cartesian Geometry (in Angstrom)
	    N    -0.9796993381  -1.5132498590   0.2468959433
	    C    -2.2969183762  -1.1822572541   0.4205472162
	    C    -2.6127209383   0.3339375343   0.4300694342
	    F    -3.6950759309   0.5388477530  -0.3444368437
	    F    -2.9397325362   0.6534605136   1.7155523520
	    C    -1.4827685520   1.3101616927  -0.0014733131
	    C    -0.1358404164   0.7438292954  -0.1258687483
	    C     0.9574422042   1.5776296436  -0.3872644013
	    C     2.2373046655   1.0704787264  -0.5180780051
	    C     2.4480319008  -0.3139359972  -0.3964865836
	    C     1.3655281348  -1.1578483600  -0.1319583296
	    C     0.0814616473  -0.6386788321  -0.0024705711
	    S     4.0256558102  -1.0893845232  -0.5166584970
	    C     5.1720736863   0.2996004444  -0.6687778906
	    O    -3.1641458099  -2.0071778214   0.5923133584
	    O    -1.7599339951   2.4759004851  -0.1760607646
	    H     3.0601714087   1.7444928781  -0.7233797870
	    H     0.7698068071   2.6427245197  -0.4855587216
	    H    -0.7864533423  -2.5068681611   0.2839240247
	    H     1.5282056949  -2.2276156405  -0.0243883689
	    H     5.0425806573   1.0158220020   0.1464493267
	    H     6.1743874133  -0.1295937641  -0.6063994893
	    H     5.0662338435   0.8064050539  -1.6313092323
	Saving final (previous) structure.
			--------------------------
			 OPTKING Finished Execution 
			--------------------------

    Final optimized geometry and variables:
    Molecular point group: c1
    Full point group: C1

    Geometry (in Angstrom), charge = 0, multiplicity = 1:

    N           -0.979699341963    -1.513249864944     0.246895944259
    C           -2.296918385277    -1.182257258740     0.420547217898
    C           -2.612720948525     0.333937535580     0.430069435931
    F           -3.695075945377     0.538847755084    -0.344436845005
    F           -2.939732547724     0.653460516121     1.715552358714
    C           -1.482768557788     1.310161697812    -0.001473313104
    C           -0.135840416908     0.743829298323    -0.125868748782
    C            0.957442207955     1.577629649787    -0.387264402857
    C            2.237304674271     1.070478730580    -0.518078007106
    C            2.448031910405    -0.313935998467    -0.396486585164
    C            1.365528140135    -1.157848364590    -0.131958330164
    C            0.081461647638    -0.638678834593    -0.002470571121
    S            4.025655826024    -1.089384527452    -0.516658499023
    C            5.172073706586     0.299600445584    -0.668777893234
    O           -3.164145822377    -2.007177829264     0.592313360748
    O           -1.759934002067     2.475900494803    -0.176060765271
    H            3.060171420719     1.744492884940    -0.723379789892
    H            0.769806810090     2.642724530116    -0.485558723500
    H           -0.786453345426    -2.506868170921     0.283924025848
    H            1.528205700879    -2.227615649279    -0.024388369011
    H            5.042580677096     1.015822005958     0.146449327307
    H            6.174387437521    -0.129593764638    -0.606399491642
    H            5.066233863432     0.806405057055    -1.631309238675

	Removing binary optimization data file.
	Cleaning optimization helper files.

    Psi4 stopped on: Tuesday, 22 June 2021 04:30AM
    Psi4 wall time for execution: 0:20:14.44

*** Psi4 exiting successfully. Buy a developer a beer!
