
    -----------------------------------------------------------------------
          Psi4: An Open-Source Ab Initio Electronic Structure Package
                               Psi4 1.3.2 release

                         Git: Rev {HEAD} ecbda83 


    R. M. Parrish, L. A. Burns, D. G. A. Smith, A. C. Simmonett,
    A. E. DePrince III, E. G. Hohenstein, U. Bozkaya, A. Yu. Sokolov,
    R. Di Remigio, R. M. Richard, J. F. Gonthier, A. M. James,
    H. R. McAlexander, A. Kumar, M. Saitow, X. Wang, B. P. Pritchard,
    P. Verma, H. F. Schaefer III, K. Patkowski, R. A. King, E. F. Valeev,
    F. A. Evangelista, J. M. Turney, T. D. Crawford, and C. D. Sherrill,
    J. Chem. Theory Comput. 13(7) pp 3185--3197 (2017).
    (doi: 10.1021/acs.jctc.7b00174)


                         Additional Contributions by
    P. Kraus, H. Kruse, M. H. Lechner, M. C. Schieber, R. A. Shaw,
    A. Alenaizan, R. Galvelis, Z. L. Glick, S. Lehtola, and J. P. Misiewicz

    -----------------------------------------------------------------------


    Psi4 started on: Tuesday, 22 June 2021 05:58AM

    Process ID: 28441
    Host:       cpu-spot-dy-c5n2xlarge-1
    PSIDATADIR: /fsx/users/francis/anaconda3/envs/poltype-dev/share/psi4
    Memory:     500.0 MiB
    Threads:    1
    
  ==> Input File <==

--------------------------------------------------------------------------
molecule { 
0 1
 N   -1.081234   -1.491156    0.086621
 C   -2.379983   -1.157980    0.369852
 C   -2.684919    0.371976    0.489219
 F   -3.592693    0.689365   -0.495797
 F   -3.283692    0.582280    1.711547
 C   -1.473433    1.359252    0.365191
 C   -0.145733    0.780153    0.057060
 C    0.979632    1.621600   -0.079298
 C    2.242163    1.097136   -0.384244
 C    2.415804   -0.303036   -0.563065
 C    1.293161   -1.145072   -0.395203
 C    0.023963   -0.624063   -0.087479
 S    3.939188   -1.140852   -0.942011
 C    5.266185    0.098601   -0.928343
 O   -3.227135   -2.029287    0.503213
 O   -1.636669    2.567562    0.506264
 H    3.075361    1.792470   -0.465531
 H    0.840130    2.694794    0.055456
 H   -0.951034   -2.490823    0.012185
 H    1.410424   -2.223651   -0.514110
 H    6.089608   -0.267904   -1.549476
 H    4.911951    1.037264   -1.361971
 H    5.606986    0.259311    0.098957
}
set optking { 
  frozen_dihedral = ("
    11 10 13 14
    9 10 13 14
    21 14 13 10
  ")
}
set {
  geom_maxiter 400
  g_convergence GAU_LOOSE
  dynamic_level 1
}
memory 16GB
set_num_threads(8)
psi4_io.set_default_path("/scratch/Psi4-ligand")
for _ in range(1):
  try:
    set opt_coordinates both
    optimize('wb97x-d/6-31+G*')
    break
  except OptimizationConvergenceError:
    break
  else:
    try:
      set opt_coordinates cartesian
      optimize('wb97x-d/6-31+G*')
      break
    except OptimizationConvergenceError:
      pass
clean()
--------------------------------------------------------------------------

  Memory set to  14.901 GiB by Python driver.
  Threads set to 8 by Python driver.
gradient() will perform analytic gradient computation.

*** tstart() called on cpu-spot-dy-c5n2xlarge-1
*** at Tue Jun 22 05:58:39 2021

   => Loading Basis Set <=

    Name: 6-31+G*
    Role: ORBITAL
    Keyword: BASIS
    atoms 1             entry N          line   138 file /fsx/users/francis/anaconda3/envs/poltype-dev/share/psi4/basis/6-31pgs.gbs 
    atoms 2-3, 6-12, 14 entry C          line   119 file /fsx/users/francis/anaconda3/envs/poltype-dev/share/psi4/basis/6-31pgs.gbs 
    atoms 4-5           entry F          line   176 file /fsx/users/francis/anaconda3/envs/poltype-dev/share/psi4/basis/6-31pgs.gbs 
    atoms 13            entry S          line   344 file /fsx/users/francis/anaconda3/envs/poltype-dev/share/psi4/basis/6-31pgs.gbs 
    atoms 15-16         entry O          line   157 file /fsx/users/francis/anaconda3/envs/poltype-dev/share/psi4/basis/6-31pgs.gbs 
    atoms 17-23         entry H          line    46 file /fsx/users/francis/anaconda3/envs/poltype-dev/share/psi4/basis/6-31pgs.gbs 


         ---------------------------------------------------------
                                   SCF
               by Justin Turney, Rob Parrish, Andy Simmonett
                          and Daniel G. A. Smith
                              RKS Reference
                        8 Threads,  15258 MiB Core
         ---------------------------------------------------------

  ==> Geometry <==

    Molecular point group: c1
    Full point group: C1

    Geometry (in Angstrom), charge = 0, multiplicity = 1:

       Center              X                  Y                   Z               Mass       
    ------------   -----------------  -----------------  -----------------  -----------------
         N           -1.039906104349    -1.496930315851     0.116621547166    14.003074004430
         C           -2.338655104349    -1.163754315851     0.399852547166    12.000000000000
         C           -2.643591104349     0.366201684149     0.519219547166    12.000000000000
         F           -3.551365104349     0.683590684149    -0.465796452834    18.998403162730
         F           -3.242364104349     0.576505684149     1.741547547166    18.998403162730
         C           -1.432105104349     1.353477684149     0.395191547166    12.000000000000
         C           -0.104405104349     0.774378684149     0.087060547166    12.000000000000
         C            1.020959895651     1.615825684149    -0.049297452834    12.000000000000
         C            2.283490895651     1.091361684149    -0.354243452834    12.000000000000
         C            2.457131895651    -0.308810315851    -0.533064452834    12.000000000000
         C            1.334488895651    -1.150846315851    -0.365202452834    12.000000000000
         C            0.065290895651    -0.629837315851    -0.057478452834    12.000000000000
         S            3.980515895651    -1.146626315851    -0.912010452834    31.972071174400
         C            5.307512895651     0.092826684149    -0.898342452834    12.000000000000
         O           -3.185807104349    -2.035061315851     0.533213547166    15.994914619570
         O           -1.595341104349     2.561787684149     0.536264547166    15.994914619570
         H            3.116688895651     1.786695684149    -0.435530452834     1.007825032230
         H            0.881457895651     2.689019684149     0.085456547166     1.007825032230
         H           -0.909706104349    -2.496597315851     0.042185547166     1.007825032230
         H            1.451751895651    -2.229425315851    -0.484109452834     1.007825032230
         H            6.130935895651    -0.273678315851    -1.519475452834     1.007825032230
         H            4.953278895651     1.031489684149    -1.331970452834     1.007825032230
         H            5.648313895651     0.253536684149     0.128957547166     1.007825032230

  Running in c1 symmetry.

  Rotational constants: A =      0.03856  B =      0.00807  C =      0.00695 [cm^-1]
  Rotational constants: A =   1156.12524  B =    241.93208  C =    208.21089 [MHz]
  Nuclear repulsion = 1173.706409878764134

  Charge       = 0
  Multiplicity = 1
  Electrons    = 124
  Nalpha       = 62
  Nbeta        = 62

  ==> Algorithm <==

  SCF Algorithm Type is DF.
  DIIS enabled.
  MOM disabled.
  Fractional occupation disabled.
  Guess Type is SAD.
  Energy threshold   = 1.00e-08
  Density threshold  = 1.00e-08
  Integral threshold = 0.00e+00

  ==> Primary Basis <==

  Basis Set: 6-31+G*
    Blend: 6-31+G*
    Number of shells: 144
    Number of basis function: 322
    Number of Cartesian functions: 322
    Spherical Harmonics?: false
    Max angular momentum: 2

  ==> DFT Potential <==

   => Composite Functional: WB97X-D <= 

    wB97X-D Hyb-GGA Exchange-Correlation Functional

    J.-D. Chai and M. Head-Gordon, Phys. Chem. Chem. Phys. 10, 6615 (2008)

    Deriv               =              1
    GGA                 =           TRUE
    Meta                =          FALSE

    Exchange Hybrid     =           TRUE
    MP2 Hybrid          =          FALSE

   => Exchange-Correlation Functionals <=

    1.0000   wB97D range-separated functional

   => Exact (HF) Exchange <=

    0.7780            HF,LR [omega = 0.2000]
    0.2220               HF 

   => Molecular Quadrature <=

    Radial Scheme          =       TREUTLER
    Pruning Scheme         =           FLAT
    Nuclear Scheme         =       TREUTLER

    BS radius alpha        =              1
    Pruning alpha          =              1
    Radial Points          =             75
    Spherical Points       =            302
    Total Points           =         520855
    Total Blocks           =           3869
    Max Points             =            256
    Max Functions          =            288

   => WB97X-D: Empirical Dispersion <=

    Chai and Head-Gordon Dispersion Correction
    Chai, J.-D.; Head-Gordon, M. (2010), J. Chem. Phys., 132: 6615-6620

        s6 =       1.000000

   => Loading Basis Set <=

    Name: (6-31+G* AUX)
    Role: JKFIT
    Keyword: DF_BASIS_SCF
    atoms 1             entry N          line   252 file /fsx/users/francis/anaconda3/envs/poltype-dev/share/psi4/basis/heavy-aug-cc-pvdz-jkfit.gbs 
    atoms 2-3, 6-12, 14 entry C          line   194 file /fsx/users/francis/anaconda3/envs/poltype-dev/share/psi4/basis/heavy-aug-cc-pvdz-jkfit.gbs 
    atoms 4-5           entry F          line   368 file /fsx/users/francis/anaconda3/envs/poltype-dev/share/psi4/basis/heavy-aug-cc-pvdz-jkfit.gbs 
    atoms 13            entry S          line   730 file /fsx/users/francis/anaconda3/envs/poltype-dev/share/psi4/basis/heavy-aug-cc-pvdz-jkfit.gbs 
    atoms 15-16         entry O          line   310 file /fsx/users/francis/anaconda3/envs/poltype-dev/share/psi4/basis/heavy-aug-cc-pvdz-jkfit.gbs 
    atoms 17-23         entry H          line   116 file /fsx/users/francis/anaconda3/envs/poltype-dev/share/psi4/basis/heavy-aug-cc-pvdz-jkfit.gbs 

  ==> Pre-Iterations <==

   -------------------------------------------------------
    Irrep   Nso     Nmo     Nalpha   Nbeta   Ndocc  Nsocc
   -------------------------------------------------------
     A        322     322       0       0       0       0
   -------------------------------------------------------
    Total     322     322      62      62      62       0
   -------------------------------------------------------

  ==> Integral Setup <==

  ==> DiskDFJK: Density-Fitted J/K Matrices <==

    J tasked:                  Yes
    K tasked:                  Yes
    wK tasked:                 Yes
    Omega:               2.000E-01
    OpenMP threads:              8
    Integrals threads:           8
    Memory [MiB]:             8464
    Algorithm:                Core
    Integral Cache:           NONE
    Schwarz Cutoff:          1E-12
    Fitting Condition:       1E-10

   => Auxiliary Basis Set <=

  Basis Set: (6-31+G* AUX)
    Blend: HEAVY-AUG-CC-PVDZ-JKFIT
    Number of shells: 523
    Number of basis function: 1840
    Number of Cartesian functions: 1840
    Spherical Harmonics?: false
    Max angular momentum: 3

  Cached 100.0% of DFT collocation blocks in 2.909 [GiB].

  Minimum eigenvalue in the overlap matrix is 5.0455679177E-07.
  Using Symmetric Orthogonalization.

  SCF Guess: Superposition of Atomic Densities via on-the-fly atomic UHF.

  ==> Iterations <==

                           Total Energy        Delta E     RMS |[F,P]|

   @DF-RKS iter SAD: -1187.20360365042984   -1.18720e+03   0.00000e+00 
   @DF-RKS iter   1: -1187.53600806164832   -3.32404e-01   3.40180e-03 DIIS
   @DF-RKS iter   2: -1187.54636455633522   -1.03565e-02   3.70664e-03 DIIS
   @DF-RKS iter   3: -1188.08617536151064   -5.39811e-01   7.82705e-04 DIIS
   @DF-RKS iter   4: -1188.11030389398115   -2.41285e-02   2.67874e-04 DIIS
   @DF-RKS iter   5: -1188.11383822108223   -3.53433e-03   7.22939e-05 DIIS
   @DF-RKS iter   6: -1188.11423882516328   -4.00604e-04   2.37445e-05 DIIS
   @DF-RKS iter   7: -1188.11429963090791   -6.08057e-05   1.02875e-05 DIIS
   @DF-RKS iter   8: -1188.11431609451142   -1.64636e-05   3.92072e-06 DIIS
   @DF-RKS iter   9: -1188.11431892617111   -2.83166e-06   2.15037e-06 DIIS
   @DF-RKS iter  10: -1188.11431927592889   -3.49758e-07   7.22007e-07 DIIS
   @DF-RKS iter  11: -1188.11431932605410   -5.01252e-08   3.25532e-07 DIIS
   @DF-RKS iter  12: -1188.11431933641097   -1.03569e-08   1.49643e-07 DIIS
   @DF-RKS iter  13: -1188.11431933895460   -2.54363e-09   5.75683e-08 DIIS
   @DF-RKS iter  14: -1188.11431933925246   -2.97860e-10   2.45503e-08 DIIS
   @DF-RKS iter  15: -1188.11431933930999   -5.75255e-11   1.18166e-08 DIIS
   @DF-RKS iter  16: -1188.11431933931772   -7.73070e-12   6.32418e-09 DIIS
  Energy and wave function converged.


  ==> Post-Iterations <==

    Orbital Energies [Eh]
    ---------------------

    Doubly Occupied:                                                      

       1A    -89.085992     2A    -24.873991     3A    -24.871918  
       4A    -19.304699     5A    -19.293379     6A    -14.542268  
       7A    -10.510075     8A    -10.458140     9A    -10.435009  
      10A    -10.411106    11A    -10.394334    12A    -10.358999  
      13A    -10.355206    14A    -10.352716    15A    -10.352622  
      16A    -10.347269    17A     -8.103302    18A     -6.054070  
      19A     -6.049468    20A     -6.043466    21A     -1.381352  
      22A     -1.324963    23A     -1.188595    24A     -1.174427  
      25A     -1.091547    26A     -0.999141    27A     -0.940139  
      28A     -0.903845    29A     -0.885877    30A     -0.869298  
      31A     -0.798094    32A     -0.763372    33A     -0.750315  
      34A     -0.744190    35A     -0.693158    36A     -0.678389  
      37A     -0.665589    38A     -0.644022    39A     -0.628024  
      40A     -0.589315    41A     -0.583428    42A     -0.564420  
      43A     -0.561759    44A     -0.555861    45A     -0.553349  
      46A     -0.552635    47A     -0.548864    48A     -0.535058  
      49A     -0.521358    50A     -0.516042    51A     -0.506626  
      52A     -0.498713    53A     -0.490838    54A     -0.485647  
      55A     -0.474546    56A     -0.439132    57A     -0.429302  
      58A     -0.395683    59A     -0.394945    60A     -0.367356  
      61A     -0.339650    62A     -0.318205  

    Virtual:                                                              

      63A     -0.046406    64A      0.011473    65A      0.039277  
      66A      0.047429    67A      0.052035    68A      0.065036  
      69A      0.066877    70A      0.074738    71A      0.080866  
      72A      0.086233    73A      0.092406    74A      0.095429  
      75A      0.104736    76A      0.111258    77A      0.114888  
      78A      0.116504    79A      0.119417    80A      0.132071  
      81A      0.136373    82A      0.139460    83A      0.144267  
      84A      0.147340    85A      0.155162    86A      0.162561  
      87A      0.171772    88A      0.173195    89A      0.176414  
      90A      0.180374    91A      0.183829    92A      0.190192  
      93A      0.192915    94A      0.196635    95A      0.201589  
      96A      0.206966    97A      0.211495    98A      0.217084  
      99A      0.220281   100A      0.228737   101A      0.234070  
     102A      0.236596   103A      0.241588   104A      0.243998  
     105A      0.245742   106A      0.249008   107A      0.255328  
     108A      0.261449   109A      0.266181   110A      0.271742  
     111A      0.276476   112A      0.284736   113A      0.287211  
     114A      0.288507   115A      0.299548   116A      0.301051  
     117A      0.311921   118A      0.313238   119A      0.320083  
     120A      0.328387   121A      0.330528   122A      0.331068  
     123A      0.337794   124A      0.342238   125A      0.354637  
     126A      0.359972   127A      0.360558   128A      0.374756  
     129A      0.379325   130A      0.383746   131A      0.392076  
     132A      0.393911   133A      0.397105   134A      0.401888  
     135A      0.412857   136A      0.417179   137A      0.429274  
     138A      0.441052   139A      0.444872   140A      0.447546  
     141A      0.458897   142A      0.471620   143A      0.477391  
     144A      0.481909   145A      0.503630   146A      0.510561  
     147A      0.524094   148A      0.530018   149A      0.535690  
     150A      0.555009   151A      0.575177   152A      0.579649  
     153A      0.585028   154A      0.595123   155A      0.605913  
     156A      0.627331   157A      0.656382   158A      0.662064  
     159A      0.673253   160A      0.695676   161A      0.728546  
     162A      0.742100   163A      0.754232   164A      0.759642  
     165A      0.768774   166A      0.772276   167A      0.788154  
     168A      0.797608   169A      0.803096   170A      0.815070  
     171A      0.822082   172A      0.837703   173A      0.859530  
     174A      0.875981   175A      0.879464   176A      0.883385  
     177A      0.897438   178A      0.915800   179A      0.928451  
     180A      0.931636   181A      0.963856   182A      0.971952  
     183A      0.982874   184A      0.988359   185A      1.011578  
     186A      1.020707   187A      1.047292   188A      1.056964  
     189A      1.071836   190A      1.078772   191A      1.084426  
     192A      1.097545   193A      1.117127   194A      1.150543  
     195A      1.155465   196A      1.170739   197A      1.201410  
     198A      1.204192   199A      1.209190   200A      1.224903  
     201A      1.231177   202A      1.238338   203A      1.267786  
     204A      1.280148   205A      1.285812   206A      1.321090  
     207A      1.322920   208A      1.335745   209A      1.344045  
     210A      1.388564   211A      1.401707   212A      1.407460  
     213A      1.414927   214A      1.418097   215A      1.439721  
     216A      1.445599   217A      1.453463   218A      1.464512  
     219A      1.468823   220A      1.484390   221A      1.506369  
     222A      1.514026   223A      1.527494   224A      1.531201  
     225A      1.551451   226A      1.591869   227A      1.619434  
     228A      1.650646   229A      1.663883   230A      1.671539  
     231A      1.708902   232A      1.748734   233A      1.755040  
     234A      1.758343   235A      1.758901   236A      1.764128  
     237A      1.770754   238A      1.781384   239A      1.788405  
     240A      1.819947   241A      1.838744   242A      1.864385  
     243A      1.874318   244A      1.894510   245A      1.900014  
     246A      1.910859   247A      1.919851   248A      1.945629  
     249A      1.962994   250A      1.967827   251A      1.971756  
     252A      2.004324   253A      2.039129   254A      2.048399  
     255A      2.056480   256A      2.059487   257A      2.079217  
     258A      2.091036   259A      2.099257   260A      2.112585  
     261A      2.145641   262A      2.152624   263A      2.166551  
     264A      2.200143   265A      2.205459   266A      2.210088  
     267A      2.246837   268A      2.254487   269A      2.260867  
     270A      2.275499   271A      2.300989   272A      2.309328  
     273A      2.313772   274A      2.344905   275A      2.350172  
     276A      2.367575   277A      2.382006   278A      2.403374  
     279A      2.462204   280A      2.466177   281A      2.510139  
     282A      2.513643   283A      2.568802   284A      2.625961  
     285A      2.657020   286A      2.677069   287A      2.704753  
     288A      2.729792   289A      2.737463   290A      2.768471  
     291A      2.778131   292A      2.827983   293A      2.828532  
     294A      2.850216   295A      2.898757   296A      2.946932  
     297A      2.959233   298A      3.030194   299A      3.117886  
     300A      3.154621   301A      3.214403   302A      3.236613  
     303A      3.337480   304A      3.379010   305A      3.462472  
     306A      3.484920   307A      4.034729   308A      4.279076  
     309A      4.312243   310A      4.332528   311A      4.360507  
     312A      4.377703   313A      4.416287   314A      4.469210  
     315A      4.486134   316A      4.521214   317A      4.580355  
     318A      4.779263   319A      4.834871   320A      5.107635  
     321A      5.705298   322A      7.132840  

    Final Occupation by Irrep:
              A 
    DOCC [    62 ]

  @DF-RKS Final Energy: -1188.11431933931772

   => Energetics <=

    Nuclear Repulsion Energy =           1173.7064098787641342
    One-Electron Energy =               -3961.4903390449981089
    Two-Electron Energy =                1689.1217459875151690
    DFT Exchange-Correlation Energy =     -89.4386864177180456
    Empirical Dispersion Energy =          -0.0134497428807433
    VV10 Nonlocal Energy =                  0.0000000000000000
    Total Energy =                      -1188.1143193393177171

Computation Completed


Properties will be evaluated at   0.000000,   0.000000,   0.000000 [a0]

Properties computed using the SCF density matrix

  Nuclear Dipole Moment: [e a0]
     X:    26.4365      Y:    -0.4986      Z:    -4.5175

  Electronic Dipole Moment: [e a0]
     X:   -23.1773      Y:     0.1533      Z:     3.9301

  Dipole Moment: [e a0]
     X:     3.2592      Y:    -0.3453      Z:    -0.5874     Total:     3.3297

  Dipole Moment: [D]
     X:     8.2841      Y:    -0.8778      Z:    -1.4930     Total:     8.4632


*** tstop() called on cpu-spot-dy-c5n2xlarge-1 at Tue Jun 22 06:00:08 2021
Module time:
	user time   =     578.15 seconds =       9.64 minutes
	system time =      13.53 seconds =       0.23 minutes
	total time  =         89 seconds =       1.48 minutes
Total time:
	user time   =     578.15 seconds =       9.64 minutes
	system time =      13.53 seconds =       0.23 minutes
	total time  =         89 seconds =       1.48 minutes

*** tstart() called on cpu-spot-dy-c5n2xlarge-1
*** at Tue Jun 22 06:00:08 2021


         ------------------------------------------------------------
                                   SCF GRAD                          
                          Rob Parrish, Justin Turney,                
                       Andy Simmonett, and Alex Sokolov              
         ------------------------------------------------------------

  ==> Geometry <==

    Molecular point group: c1
    Full point group: C1

    Geometry (in Angstrom), charge = 0, multiplicity = 1:

       Center              X                  Y                   Z               Mass       
    ------------   -----------------  -----------------  -----------------  -----------------
         N           -1.039906104349    -1.496930315851     0.116621547166    14.003074004430
         C           -2.338655104349    -1.163754315851     0.399852547166    12.000000000000
         C           -2.643591104349     0.366201684149     0.519219547166    12.000000000000
         F           -3.551365104349     0.683590684149    -0.465796452834    18.998403162730
         F           -3.242364104349     0.576505684149     1.741547547166    18.998403162730
         C           -1.432105104349     1.353477684149     0.395191547166    12.000000000000
         C           -0.104405104349     0.774378684149     0.087060547166    12.000000000000
         C            1.020959895651     1.615825684149    -0.049297452834    12.000000000000
         C            2.283490895651     1.091361684149    -0.354243452834    12.000000000000
         C            2.457131895651    -0.308810315851    -0.533064452834    12.000000000000
         C            1.334488895651    -1.150846315851    -0.365202452834    12.000000000000
         C            0.065290895651    -0.629837315851    -0.057478452834    12.000000000000
         S            3.980515895651    -1.146626315851    -0.912010452834    31.972071174400
         C            5.307512895651     0.092826684149    -0.898342452834    12.000000000000
         O           -3.185807104349    -2.035061315851     0.533213547166    15.994914619570
         O           -1.595341104349     2.561787684149     0.536264547166    15.994914619570
         H            3.116688895651     1.786695684149    -0.435530452834     1.007825032230
         H            0.881457895651     2.689019684149     0.085456547166     1.007825032230
         H           -0.909706104349    -2.496597315851     0.042185547166     1.007825032230
         H            1.451751895651    -2.229425315851    -0.484109452834     1.007825032230
         H            6.130935895651    -0.273678315851    -1.519475452834     1.007825032230
         H            4.953278895651     1.031489684149    -1.331970452834     1.007825032230
         H            5.648313895651     0.253536684149     0.128957547166     1.007825032230

  Nuclear repulsion = 1173.706409878764362

  ==> Basis Set <==

  Basis Set: 6-31+G*
    Blend: 6-31+G*
    Number of shells: 144
    Number of basis function: 322
    Number of Cartesian functions: 322
    Spherical Harmonics?: false
    Max angular momentum: 2

  ==> DFJKGrad: Density-Fitted SCF Gradients <==

    Gradient:                    1
    J tasked:                  Yes
    K tasked:                  Yes
    wK tasked:                 Yes
    Omega:               2.000E-01
    OpenMP threads:              8
    Integrals threads:           8
    Memory [MiB]:            11444
    Schwarz Cutoff:          0E+00
    Fitting Condition:       1E-10

   => Auxiliary Basis Set <=

  Basis Set: (6-31+G* AUX)
    Blend: HEAVY-AUG-CC-PVDZ-JKFIT
    Number of shells: 523
    Number of basis function: 1840
    Number of Cartesian functions: 1840
    Spherical Harmonics?: false
    Max angular momentum: 3

  ==> DFT Potential <==

   => Composite Functional: WB97X-D <= 

    wB97X-D Hyb-GGA Exchange-Correlation Functional

    J.-D. Chai and M. Head-Gordon, Phys. Chem. Chem. Phys. 10, 6615 (2008)

    Deriv               =              1
    GGA                 =           TRUE
    Meta                =          FALSE

    Exchange Hybrid     =           TRUE
    MP2 Hybrid          =          FALSE

   => Exchange-Correlation Functionals <=

    1.0000   wB97D range-separated functional

   => Exact (HF) Exchange <=

    0.7780            HF,LR [omega = 0.2000]
    0.2220               HF 

   => Molecular Quadrature <=

    Radial Scheme          =       TREUTLER
    Pruning Scheme         =           FLAT
    Nuclear Scheme         =       TREUTLER

    BS radius alpha        =              1
    Pruning alpha          =              1
    Radial Points          =             75
    Spherical Points       =            302
    Total Points           =         520855
    Total Blocks           =           3869
    Max Points             =            256
    Max Functions          =            288


  -Total Gradient:
     Atom            X                  Y                   Z
    ------   -----------------  -----------------  -----------------
       1       -0.009432003451    -0.011005018559     0.001783035345
       2        0.008016262933     0.011533620064    -0.000585650136
       3        0.012195562178    -0.003889608286    -0.005011386037
       4       -0.011196134672     0.004063563144    -0.012475462769
       5       -0.007858303750     0.003057910279     0.017767458942
       6       -0.009011215628    -0.021757075776     0.000190257911
       7       -0.000414875427     0.007442866925    -0.000690456900
       8       -0.002945063933     0.013480358082     0.003358315460
       9        0.005662934659     0.003633067293    -0.001249453555
      10        0.008254755395    -0.009664730658    -0.007825752468
      11        0.004391721690    -0.002648395737     0.000576653868
      12       -0.002161698960    -0.006107703433     0.000547086826
      13        0.005399782711     0.003024188906     0.003338885838
      14        0.007303886667    -0.006118897308    -0.004066841837
      15       -0.008832613038    -0.021632828498     0.000611314845
      16        0.005296639977     0.029069941765     0.001414988190
      17        0.000798403429     0.003509507458     0.000360394565
      18       -0.000653824363     0.003854937050     0.000652701608
      19       -0.004029216986     0.001681796116     0.001107815229
      20        0.000217034481    -0.002569305938    -0.000769256506
      21        0.003085184059     0.002975217154    -0.002010432249
      22       -0.002144916880    -0.000303243858     0.000266960673
      23       -0.001373468550    -0.001870644424     0.002533147511


*** tstop() called on cpu-spot-dy-c5n2xlarge-1 at Tue Jun 22 06:00:34 2021
Module time:
	user time   =     146.98 seconds =       2.45 minutes
	system time =       3.76 seconds =       0.06 minutes
	total time  =         26 seconds =       0.43 minutes
Total time:
	user time   =     725.14 seconds =      12.09 minutes
	system time =      17.29 seconds =       0.29 minutes
	total time  =        115 seconds =       1.92 minutes

			-----------------------------------------
			 OPTKING 2.0: for geometry optimizations 
			  - R.A. King,  Bethel University        
			-----------------------------------------
	At level 1: Red. Int., RFO, no backsteps, dynamic trust

	Internal coordinates to be generated automatically.
	Detected frag 1 with atoms:  1 2 3 4 5 6 7 8 9 10 11 12 13 14 15 16 17 18 19 20
	 21 22 23
	---Fragment 1 Bond Connectivity---
	 1 : 2 12 19
	 2 : 1 3 15
	 3 : 2 4 5 6
	 4 : 3
	 5 : 3
	 6 : 3 7 16
	 7 : 6 8 12
	 8 : 7 9 18
	 9 : 8 10 17
	 10 : 9 11 13
	 11 : 10 12 20
	 12 : 1 7 11
	 13 : 10 14
	 14 : 13 21 22 23
	 15 : 2
	 16 : 6
	 17 : 9
	 18 : 8
	 19 : 1
	 20 : 11
	 21 : 14
	 22 : 14
	 23 : 14

	Assuming in current code that numbering for constraints corresponds to unified fragment.
	Frozen dihedral atom list: 
	    11    10    13    14
	     9    10    13    14
	    21    14    13    10
	---Fragment 1 Geometry and Gradient---
	 N          -1.9651377334       -2.8287883259        0.2203827845
	 C          -4.4194176491       -2.1991769343        0.7556118047
	 C          -4.9956631749        0.6920208897        0.9811827431
	 F          -6.7111074187        1.2917991750       -0.8802277261
	 F          -6.1271801562        1.0894378528        3.2910478986
	 C          -2.7062864301        2.5577021400        0.7468037912
	 C          -0.1972970533        1.4633636304        0.1645205905
	 C           1.9293345879        3.0534680095       -0.0931586845
	 C           4.3151724028        2.0623746869       -0.6694231076
	 C           4.6433063369       -0.5835669217       -1.0073458231
	 C           2.5218185302       -2.1747843495       -0.6901326162
	 C           0.1233819113       -1.1902200306       -0.1086185340
	 S           7.5220848808       -2.1668097052       -1.7234499794
	 C          10.0297457801        0.1754170102       -1.6976212027
	 O          -6.0203029158       -3.8457085355        1.0076275705
	 O          -3.0147577639        4.8410771146        1.0133931249
	 H           5.8896884310        3.3763655126       -0.8230332752
	 H           1.6657140139        5.0815107490        0.1614894698
	 H          -1.7190953919       -4.7178851725        0.0797191306
	 H           2.7434134849       -4.2130032641       -0.9148342806
	 H          11.5857897355       -0.5171770634       -2.8713924602
	 H           9.3603405358        1.9492330043       -2.5170593631
	 H          10.6737663334        0.4791148958        0.2436944460
	            -0.0094320035       -0.0110050186        0.0017830353
	             0.0080162629        0.0115336201       -0.0005856501
	             0.0121955622       -0.0038896083       -0.0050113860
	            -0.0111961347        0.0040635631       -0.0124754628
	            -0.0078583038        0.0030579103        0.0177674589
	            -0.0090112156       -0.0217570758        0.0001902579
	            -0.0004148754        0.0074428669       -0.0006904569
	            -0.0029450639        0.0134803581        0.0033583155
	             0.0056629347        0.0036330673       -0.0012494536
	             0.0082547554       -0.0096647307       -0.0078257525
	             0.0043917217       -0.0026483957        0.0005766539
	            -0.0021616990       -0.0061077034        0.0005470868
	             0.0053997827        0.0030241889        0.0033388858
	             0.0073038867       -0.0061188973       -0.0040668418
	            -0.0088326130       -0.0216328285        0.0006113148
	             0.0052966400        0.0290699418        0.0014149882
	             0.0007984034        0.0035095075        0.0003603946
	            -0.0006538244        0.0038549370        0.0006527016
	            -0.0040292170        0.0016817961        0.0011078152
	             0.0002170345       -0.0025693059       -0.0007692565
	             0.0030851841        0.0029752172       -0.0020104322
	            -0.0021449169       -0.0003032439        0.0002669607
	            -0.0013734685       -0.0018706444        0.0025331475

	Previous optimization step data not found.  Starting new optimization.

	---Fragment 1 Intrafragment Coordinates---
	 - Coordinate -           - BOHR/RAD -       - ANG/DEG -
	 R(1,2)           =         2.589666	       1.370392
	 R(1,12)          =         2.674895	       1.415493
	 R(1,19)          =         1.910238	       1.010855
	 R(2,3)           =         2.956682	       1.564609
	 R(2,15)          =         2.310284	       1.222550
	 R(3,4)           =         2.601410	       1.376607
	 R(3,5)           =         2.602642	       1.377259
	 R(3,6)           =         2.962591	       1.567736
	 R(6,7)           =         2.798510	       1.480908
	 R(6,16)          =         2.319488	       1.227420
	 R(7,8)           =         2.667844	       1.411762
	 R(7,12)          =         2.686810	       1.421798
	 R(8,9)           =         2.646992	       1.400728
	 R(8,18)          =         2.060898	       1.090580
	 R(9,10)          =         2.687540	       1.422185
	 R(9,17)          =         2.056519	       1.088263
	 R(10,11)         =         2.670825	       1.413340
	 R(10,13)         =         3.362563	       1.779392
	 R(11,12)         =         2.657071	       1.406061
	 R(11,20)         =         2.062506	       1.091431
	 R(13,14)         =         3.431480	       1.815861
	 R(14,21)         =         2.068501	       1.094604
	 R(14,22)         =         2.065431	       1.092979
	 R(14,23)         =         2.067777	       1.094220
	 B(1,2,3)         =         2.024408	     115.990034
	 B(1,2,15)        =         2.101318	     120.396674
	 B(1,12,7)        =         2.093593	     119.954020
	 B(1,12,11)       =         2.099852	     120.312637
	 B(2,1,12)        =         2.235030	     128.057780
	 B(2,1,19)        =         1.958130	     112.192598
	 B(2,3,4)         =         1.874842	     107.420536
	 B(2,3,5)         =         1.877332	     107.563203
	 B(2,3,6)         =         2.047840	     117.332605
	 B(3,2,15)        =         2.157404	     123.610127
	 B(3,6,7)         =         2.052194	     117.582037
	 B(3,6,16)        =         2.103749	     120.535917
	 B(4,3,5)         =         1.889304	     108.249136
	 B(4,3,6)         =         1.883654	     107.925447
	 B(5,3,6)         =         1.886006	     108.060198
	 B(6,7,8)         =         2.096350	     120.111999
	 B(6,7,12)        =         2.111063	     120.955020
	 B(7,6,16)        =         2.127160	     121.877286
	 B(7,8,9)         =         2.113381	     121.087793
	 B(7,8,18)        =         2.063062	     118.204748
	 B(7,12,11)       =         2.089721	     119.732210
	 B(8,7,12)        =         2.075669	     118.927062
	 B(8,9,10)        =         2.101394	     120.401026
	 B(8,9,17)        =         2.056819	     117.847072
	 B(9,8,18)        =         2.106735	     120.707043
	 B(9,10,11)       =         2.065351	     118.335920
	 B(9,10,13)       =         2.207890	     126.502794
	 B(10,9,17)       =         2.124898	     121.747695
	 B(10,11,12)      =         2.120263	     121.482142
	 B(10,11,20)      =         2.083438	     119.372198
	 B(10,13,14)      =         1.878272	     107.617063
	 B(11,10,13)      =         2.009552	     115.138825
	 B(12,1,19)       =         2.089978	     119.746910
	 B(12,11,20)      =         2.079456	     119.144034
	 B(13,14,21)      =         1.893276	     108.476728
	 B(13,14,22)      =         1.924492	     110.265279
	 B(13,14,23)      =         1.912320	     109.567841
	 B(21,14,22)      =         1.882028	     107.832244
	 B(21,14,23)      =         1.925837	     110.342319
	 B(22,14,23)      =         1.925469	     110.321233
	 D(1,2,3,4)       =         2.058551	     117.946258
	 D(1,2,3,5)       =        -2.194267	    -125.722245
	 D(1,2,3,6)       =        -0.065304	      -3.741617
	 D(1,12,7,6)      =        -0.019350	      -1.108659
	 D(1,12,7,8)      =         3.106812	     178.007189
	 D(1,12,11,10)    =        -3.132090	    -179.455521
	 D(1,12,11,20)    =         0.017654	       1.011487
	 D(2,1,12,7)      =         0.022552	       1.292143
	 D(2,1,12,11)     =        -3.125816	    -179.096079
	 D(2,3,6,7)       =         0.067754	       3.881994
	 D(2,3,6,16)      =        -3.087433	    -176.896900
	 D(3,2,1,12)      =         0.021963	       1.258378
	 D(3,2,1,19)      =        -3.130248	    -179.349975
	 D(3,6,7,8)       =         3.130939	     179.389576
	 D(3,6,7,12)      =        -0.026267	      -1.504991
	 D(4,3,2,15)      =        -1.071760	     -61.407327
	 D(4,3,6,7)       =        -2.051529	    -117.543939
	 D(4,3,6,16)      =         1.076470	      61.677167
	 D(5,3,2,15)      =         0.958608	      54.924170
	 D(5,3,6,7)       =         2.192231	     125.605607
	 D(5,3,6,16)      =        -0.962956	     -55.173287
	 D(6,3,2,15)      =         3.087571	     176.904798
	 D(6,7,8,9)       =        -3.129855	    -179.327500
	 D(6,7,8,18)      =         0.007670	       0.439487
	 D(6,7,12,11)     =         3.128979	     179.277298
	 D(7,8,9,10)      =        -0.000441	      -0.025277
	 D(7,8,9,17)      =        -3.129237	    -179.292072
	 D(7,12,1,19)     =        -3.107717	    -178.059076
	 D(7,12,11,10)    =         0.002742	       0.157118
	 D(7,12,11,20)    =        -3.130700	    -179.375874
	 D(8,7,6,16)      =         0.003135	       0.179597
	 D(8,7,12,11)     =        -0.028045	      -1.606854
	 D(8,9,10,11)     =        -0.024759	      -1.418584
	 D(8,9,10,13)     =        -3.134679	    -179.603868
	 D(9,8,7,12)      =         0.027035	       1.549011
	 D(9,10,11,12)    =         0.023628	       1.353774
	 D(9,10,11,20)    =        -3.126134	    -179.114277
	*D(9,10,13,14)    =         0.078580	       4.502288
	 D(10,9,8,18)     =        -3.137865	    -179.786444
	*D(10,13,14,21)   =        -2.724868	    -156.123429
	 D(10,13,14,22)   =        -0.667551	     -38.247863
	 D(10,13,14,23)   =         1.454939	      83.361881
	 D(11,10,9,17)    =         3.103528	     177.819046
	*D(11,10,13,14)   =        -3.032219	    -173.733330
	 D(11,12,1,19)    =         0.027100	       1.552701
	 D(12,1,2,15)     =        -3.130523	    -179.365764
	 D(12,7,6,16)     =         3.129114	     179.285029
	 D(12,7,8,18)     =        -3.118624	    -178.684002
	 D(12,11,10,13)   =         3.137098	     179.742487
	 D(13,10,9,17)    =        -0.006392	      -0.366238
	 D(13,10,11,20)   =        -0.012663	      -0.725564
	 D(15,2,1,19)     =         0.000452	       0.025883
	 D(17,9,8,18)     =         0.016524	       0.946761

	Current energy   :     -1188.1143193393

	Generating empirical Hessian (Schlegel '84) for each fragment.
	Taking RFO optimization step.
	Going to follow RFO solution 1.
	Using RFO vector 1.
	Norm of target step-size    0.20383
	Projected energy change by RFO approximation:        -0.0129277209

	Back-transformation to cartesian coordinates...
	Could not converge backtransformation.
	Using first guess instead.

	Back-transformation to cartesian coordinates to adjust frozen coordinates...
	Successfully converged to displaced geometry.

	--- Internal Coordinate Step in ANG or DEG, aJ/ANG or AJ/DEG ---
	 ---------------------------------------------------------------------------
	   Coordinate                Previous        Force       Change         New 
	   ----------                --------       ------       ------       ------
	    1 R(1,2)          =      1.370392    -0.010561    -0.001091     1.369302
	    2 R(1,12)         =      1.415493    -0.133055    -0.019605     1.395889
	    3 R(1,19)         =      1.010855     0.018843     0.002676     1.013531
	    4 R(2,3)          =      1.564609    -0.095896    -0.021085     1.543523
	    5 R(2,15)         =      1.222550    -0.178029    -0.010131     1.212419
	    6 R(3,4)          =      1.376607    -0.142312    -0.017826     1.358781
	    7 R(3,5)          =      1.377259    -0.161997    -0.020435     1.356824
	    8 R(3,6)          =      1.567736    -0.088996    -0.020065     1.547670
	    9 R(6,7)          =      1.480908    -0.078257    -0.014071     1.466837
	   10 R(6,16)         =      1.227420    -0.231500    -0.015302     1.212118
	   11 R(7,8)          =      1.411762    -0.106138    -0.015052     1.396710
	   12 R(7,12)         =      1.421798    -0.119303    -0.018141     1.403658
	   13 R(8,9)          =      1.400728    -0.137081    -0.018734     1.381994
	   14 R(8,18)         =      1.090580    -0.032710    -0.005709     1.084871
	   15 R(9,10)         =      1.422185    -0.142954    -0.020628     1.401557
	   16 R(9,17)         =      1.088263    -0.023177    -0.003555     1.084707
	   17 R(10,11)        =      1.413340    -0.111486    -0.015887     1.397453
	   18 R(10,13)        =      1.779392    -0.094546    -0.020855     1.758537
	   19 R(11,12)        =      1.406061    -0.142591    -0.019535     1.386526
	   20 R(11,20)        =      1.091431    -0.021702    -0.003778     1.087653
	   21 R(13,14)        =      1.815861    -0.010491     0.002263     1.818124
	   22 R(14,21)        =      1.094604    -0.020097    -0.003401     1.091203
	   23 R(14,22)        =      1.092979    -0.002614     0.000445     1.093424
	   24 R(14,23)        =      1.094220    -0.013918    -0.001827     1.092393
	   25 B(1,2,3)        =    115.990034    -0.000064    -0.076161   115.913873
	   26 B(1,2,15)       =    120.396674     0.000812     2.292654   122.689329
	   27 B(1,12,7)       =    119.954020     0.000230     0.476612   120.430631
	   28 B(1,12,11)      =    120.312637    -0.000424    -1.132023   119.180614
	   29 B(2,1,12)       =    128.057780    -0.000185    -0.665950   127.391831
	   30 B(2,1,19)       =    112.192598     0.000377     1.572564   113.765162
	   31 B(2,3,4)        =    107.420536    -0.000034    -0.227128   107.193407
	   32 B(2,3,5)        =    107.563203    -0.000027    -0.067105   107.496098
	   33 B(2,3,6)        =    117.332605     0.000070     0.501434   117.834039
	   34 B(3,2,15)       =    123.610127    -0.000748    -2.214419   121.395709
	   35 B(3,6,7)        =    117.582037    -0.000146    -0.373729   117.208309
	   36 B(3,6,16)       =    120.535917    -0.000748    -2.192180   118.343737
	   37 B(4,3,5)        =    108.249136    -0.000022    -0.267260   107.981876
	   38 B(4,3,6)        =    107.925447    -0.000011    -0.126360   107.799087
	   39 B(5,3,6)        =    108.060198     0.000018     0.125136   108.185334
	   40 B(6,7,8)        =    120.111999    -0.000015     0.041624   120.153622
	   41 B(6,7,12)       =    120.955020     0.000096     0.150365   121.105386
	   42 B(7,6,16)       =    121.877286     0.000894     2.567709   124.444994
	   43 B(7,8,9)        =    121.087793     0.000069     0.204216   121.292009
	   44 B(7,8,18)       =    118.204748    -0.000020    -0.041559   118.163189
	   45 B(7,12,11)      =    119.732210     0.000193     0.653953   120.386163
	   46 B(8,7,12)       =    118.927062    -0.000080    -0.187745   118.739317
	   47 B(8,9,10)       =    120.401026    -0.000237    -0.757023   119.644003
	   48 B(8,9,17)       =    117.847072     0.000296     1.141811   118.988883
	   49 B(9,8,18)       =    120.707043    -0.000049    -0.162453   120.544590
	   50 B(9,10,11)      =    118.335920     0.000439     1.318438   119.654358
	   51 B(9,10,13)      =    126.502794    -0.000460    -1.359539   125.143256
	   52 B(10,9,17)      =    121.747695    -0.000059    -0.381759   121.365936
	   53 B(10,11,12)     =    121.482142    -0.000383    -1.220563   120.261579
	   54 B(10,11,20)     =    119.372198     0.000191     0.602048   119.974246
	   55 B(10,13,14)     =    107.617063    -0.001478    -4.230151   103.386913
	   56 B(11,10,13)     =    115.138825     0.000021     0.040427   115.179251
	   57 B(12,1,19)      =    119.746910    -0.000193    -0.906982   118.839929
	   58 B(12,11,20)     =    119.144034     0.000192     0.618846   119.762880
	   59 B(13,14,21)     =    108.476728    -0.000574    -2.719606   105.757123
	   60 B(13,14,22)     =    110.265279     0.000254     1.047755   111.313034
	   61 B(13,14,23)     =    109.567841     0.000420     2.094346   111.662186
	   62 B(21,14,22)     =    107.832244    -0.000008    -0.503167   107.329076
	   63 B(21,14,23)     =    110.342319     0.000012    -0.002947   110.339373
	   64 B(22,14,23)     =    110.321233    -0.000118    -0.060331   110.260903
	   65 D(1,2,3,4)      =    117.946258     0.000005     0.153533   118.099791
	   66 D(1,2,3,5)      =   -125.722245    -0.000008    -0.305406  -126.027651
	   67 D(1,2,3,6)      =     -3.741617     0.000003     0.158369    -3.583248
	   68 D(1,12,7,6)     =     -1.108659     0.000003     0.322150    -0.786509
	   69 D(1,12,7,8)     =    178.007189     0.000007     0.736063   178.743252
	   70 D(1,12,11,10)   =   -179.455521    -0.000004    -0.406322  -179.861843
	   71 D(1,12,11,20)   =      1.011487    -0.000005    -0.459277     0.552209
	   72 D(2,1,12,7)     =      1.292143    -0.000003    -0.263482     1.028661
	   73 D(2,1,12,11)    =   -179.096079    -0.000004    -0.458640  -179.554719
	   74 D(2,3,6,7)      =      3.881994    -0.000003    -0.096241     3.785753
	   75 D(2,3,6,16)     =   -176.896900    -0.000001     0.084864  -176.812036
	   76 D(3,2,1,12)     =      1.258378    -0.000001     0.000073     1.258450
	   77 D(3,2,1,19)     =   -179.349975    -0.000001    -0.043537  -179.393512
	   78 D(3,6,7,8)      =    179.389576    -0.000004    -0.555551   178.834025
	   79 D(3,6,7,12)     =     -1.504991    -0.000000    -0.137822    -1.642813
	   80 D(4,3,2,15)     =    -61.407327     0.000002    -0.122889   -61.530216
	   81 D(4,3,6,7)      =   -117.543939    -0.000002    -0.042116  -117.586055
	   82 D(4,3,6,16)     =     61.677167     0.000001     0.138989    61.816156
	   83 D(5,3,2,15)     =     54.924170    -0.000011    -0.581827    54.342342
	   84 D(5,3,6,7)      =    125.605607     0.000003     0.273221   125.878828
	   85 D(5,3,6,16)     =    -55.173287     0.000006     0.454326   -54.718961
	   86 D(6,3,2,15)     =    176.904798     0.000000    -0.118053   176.786745
	   87 D(6,7,8,9)      =   -179.327500    -0.000004    -0.493585  -179.821085
	   88 D(6,7,8,18)     =      0.439487    -0.000001    -0.094090     0.345397
	   89 D(6,7,12,11)    =    179.277298     0.000004     0.526642   179.803939
	   90 D(7,8,9,10)     =     -0.025277     0.000004     0.513571     0.488294
	   91 D(7,8,9,17)     =   -179.292072     0.000001     0.169779  -179.122293
	   92 D(7,12,1,19)    =   -178.059076    -0.000003    -0.231098  -178.290174
	   93 D(7,12,11,10)   =      0.157118    -0.000005    -0.602075    -0.444958
	   94 D(7,12,11,20)   =   -179.375874    -0.000006    -0.655030  -180.030905
	   95 D(8,7,6,16)     =      0.179597    -0.000004    -0.707589    -0.527992
	   96 D(8,7,12,11)    =     -1.606854     0.000008     0.940555    -0.666299
	   97 D(8,9,10,11)    =     -1.418584    -0.000003    -0.183096    -1.601679
	   98 D(8,9,10,13)    =   -179.603868    -0.000001    -0.160405  -179.764272
	   99 D(9,8,7,12)     =      1.549011    -0.000008    -0.904460     0.644551
	  100 D(9,10,11,12)   =      1.353774     0.000003     0.230317     1.584090
	  101 D(9,10,11,20)   =   -179.114277     0.000004     0.283437  -178.830840
	  102 *D(9,10,13,14)  =      4.502288     0.000000     0.000000     4.502288
	  103 D(10,9,8,18)    =   -179.786444     0.000001     0.104317  -179.682127
	  104 *D(10,13,14,21) =   -156.123429     0.000000     0.000000  -156.123429
	  105 D(10,13,14,22)  =    -38.247863    -0.000047    -1.625184   -39.873047
	  106 D(10,13,14,23)  =     83.361881     0.000019     0.470590    83.832471
	  107 D(11,10,9,17)   =    177.819046     0.000001     0.180351   177.999397
	  108 *D(11,10,13,14) =   -173.733330    -0.000000    -0.000000  -173.733330
	  109 D(11,12,1,19)   =      1.552701    -0.000004    -0.426255     1.126446
	  110 D(12,1,2,15)    =   -179.365764    -0.000000     0.248955  -179.116809
	  111 D(12,7,6,16)    =    179.285029     0.000000    -0.289859   178.995170
	  112 D(12,7,8,18)    =   -178.684002    -0.000005    -0.504965  -179.188967
	  113 D(12,11,10,13)  =    179.742487    -0.000000     0.181427   179.923914
	  114 D(13,10,9,17)   =     -0.366238     0.000002     0.203042    -0.163196
	  115 D(13,10,11,20)  =     -0.725564     0.000000     0.234547    -0.491017
	  116 D(15,2,1,19)    =      0.025883    -0.000000     0.205345     0.231228
	  117 D(17,9,8,18)    =      0.946761    -0.000002    -0.239475     0.707287
	 ---------------------------------------------------------------------------
	Successfully symmetrized geometry.

  ==> Convergence Check <==

  Measures of convergence in internal coordinates in au.
  Criteria marked as inactive (o), active & met (*), and active & unmet ( ).
  --------------------------------------------------------------------------------------------- ~
   Step     Total Energy     Delta E     MAX Force     RMS Force      MAX Disp      RMS Disp    ~
  --------------------------------------------------------------------------------------------- ~
    Convergence Criteria             o    2.50e-03 *    1.70e-03 *    1.00e-02 *    6.70e-03 *  ~
  --------------------------------------------------------------------------------------------- ~
      1   -1188.11431934   -1.19e+03 o    2.81e-02      6.74e-03      7.38e-02      1.88e-02    ~
  ---------------------------------------------------------------------------------------------

	Writing optimization data to binary file.
	Structure for next step:
	Cartesian Geometry (in Angstrom)
	    N    -1.0086389847  -1.4881703459   0.1016300870
	    C    -2.3004508835  -1.1356103889   0.3878297569
	    C    -2.5745016907   0.3781914434   0.5133863818
	    F    -3.4686464323   0.7062383507  -0.4557242578
	    F    -3.1654551159   0.5873281487   1.7167183597
	    C    -1.3704449647   1.3430174503   0.3923842707
	    C    -0.0650322688   0.7507487127   0.0813778427
	    C     1.0586266247   1.5671391501  -0.0659185593
	    C     2.2989277266   1.0345700736  -0.3624479164
	    C     2.4367567306  -0.3501094637  -0.5298622585
	    C     1.3256132510  -1.1808319994  -0.3621241807
	    C     0.0854124315  -0.6372256167  -0.0640499093
	    S     3.9418436963  -1.1798635902  -0.9022519525
	    C     5.1783571332   0.1523923280  -0.8609713535
	    O    -3.1858647040  -1.9516562422   0.5294989331
	    O    -1.5655935906   2.5291644541   0.5479570624
	    H     3.1491891308   1.7017957566  -0.4544027373
	    H     0.9343045602   2.6372879316   0.0616401477
	    H    -0.8673893463  -2.4882331431   0.0169701682
	    H     1.4307584675  -2.2577924014  -0.4720780232
	    H     6.0062014768  -0.1922970549  -1.4827321995
	    H     4.7904205118   1.0688426395  -1.3139617492
	    H     5.5241787672   0.3502045346   0.1561816829
			--------------------------
			 OPTKING Finished Execution 
			--------------------------

    Structure for next step:
    Molecular point group: c1
    Full point group: C1

    Geometry (in Angstrom), charge = 0, multiplicity = 1:

    N           -1.024601936434    -1.484651471378     0.102426204119
    C           -2.316413840358    -1.132091512954     0.388625875174
    C           -2.590464648633     0.381710325299     0.514182500532
    F           -3.484609393708     0.709757233885    -0.454928142851
    F           -3.181418076151     0.590847031383     1.717514483213
    C           -1.386407917952     1.346536335973     0.393180388999
    C           -0.080995216845     0.754267596028     0.082173959786
    C            1.042663681084     1.570658036642    -0.065122442769
    C            2.282964787868     1.038088958011    -0.361651801098
    C            2.420793792370    -0.346590584673    -0.529066143817
    C            1.309650308400    -1.177313123629    -0.361328065384
    C            0.069449483985    -0.633706738780    -0.063253792782
    S            3.925880763956    -1.176344714448    -0.901455839288
    C            5.162394205776     0.155911208931    -0.860175240146
    O           -3.201827664307    -1.948137369453     0.530295051885
    O           -1.581556544602     2.532683344446     0.548753181334
    H            3.133226195332     1.705314643701    -0.453606622364
    H            0.918341616006     2.640806822303     0.062436264715
    H           -0.883352297496    -2.484714272548     0.017766285002
    H            1.414795525303    -2.254273529851    -0.471281908301
    H            5.990238552583    -0.188778175247    -1.481936088549
    H            4.774457582843     1.072361524090    -1.313165637629
    H            5.508215841145     0.353723416321     0.156977800310

gradient() will perform analytic gradient computation.

*** tstart() called on cpu-spot-dy-c5n2xlarge-1
*** at Tue Jun 22 06:00:34 2021

   => Loading Basis Set <=

    Name: 6-31+G*
    Role: ORBITAL
    Keyword: BASIS
    atoms 1             entry N          line   138 file /fsx/users/francis/anaconda3/envs/poltype-dev/share/psi4/basis/6-31pgs.gbs 
    atoms 2-3, 6-12, 14 entry C          line   119 file /fsx/users/francis/anaconda3/envs/poltype-dev/share/psi4/basis/6-31pgs.gbs 
    atoms 4-5           entry F          line   176 file /fsx/users/francis/anaconda3/envs/poltype-dev/share/psi4/basis/6-31pgs.gbs 
    atoms 13            entry S          line   344 file /fsx/users/francis/anaconda3/envs/poltype-dev/share/psi4/basis/6-31pgs.gbs 
    atoms 15-16         entry O          line   157 file /fsx/users/francis/anaconda3/envs/poltype-dev/share/psi4/basis/6-31pgs.gbs 
    atoms 17-23         entry H          line    46 file /fsx/users/francis/anaconda3/envs/poltype-dev/share/psi4/basis/6-31pgs.gbs 


         ---------------------------------------------------------
                                   SCF
               by Justin Turney, Rob Parrish, Andy Simmonett
                          and Daniel G. A. Smith
                              RKS Reference
                        8 Threads,  15258 MiB Core
         ---------------------------------------------------------

  ==> Geometry <==

    Molecular point group: c1
    Full point group: C1

    Geometry (in Angstrom), charge = 0, multiplicity = 1:

       Center              X                  Y                   Z               Mass       
    ------------   -----------------  -----------------  -----------------  -----------------
         N           -1.024601936434    -1.484651471378     0.102426204119    14.003074004430
         C           -2.316413840358    -1.132091512954     0.388625875174    12.000000000000
         C           -2.590464648633     0.381710325299     0.514182500532    12.000000000000
         F           -3.484609393708     0.709757233885    -0.454928142851    18.998403162730
         F           -3.181418076151     0.590847031383     1.717514483213    18.998403162730
         C           -1.386407917952     1.346536335973     0.393180388999    12.000000000000
         C           -0.080995216845     0.754267596028     0.082173959786    12.000000000000
         C            1.042663681084     1.570658036642    -0.065122442769    12.000000000000
         C            2.282964787868     1.038088958011    -0.361651801098    12.000000000000
         C            2.420793792370    -0.346590584673    -0.529066143817    12.000000000000
         C            1.309650308400    -1.177313123629    -0.361328065384    12.000000000000
         C            0.069449483985    -0.633706738780    -0.063253792782    12.000000000000
         S            3.925880763956    -1.176344714448    -0.901455839288    31.972071174400
         C            5.162394205776     0.155911208931    -0.860175240146    12.000000000000
         O           -3.201827664307    -1.948137369453     0.530295051885    15.994914619570
         O           -1.581556544602     2.532683344446     0.548753181334    15.994914619570
         H            3.133226195332     1.705314643701    -0.453606622364     1.007825032230
         H            0.918341616006     2.640806822303     0.062436264715     1.007825032230
         H           -0.883352297496    -2.484714272548     0.017766285002     1.007825032230
         H            1.414795525303    -2.254273529851    -0.471281908301     1.007825032230
         H            5.990238552583    -0.188778175247    -1.481936088549     1.007825032230
         H            4.774457582843     1.072361524090    -1.313165637629     1.007825032230
         H            5.508215841145     0.353723416321     0.156977800310     1.007825032230

  Running in c1 symmetry.

  Rotational constants: A =      0.03958  B =      0.00832  C =      0.00716 [cm^-1]
  Rotational constants: A =   1186.67576  B =    249.56516  C =    214.58953 [MHz]
  Nuclear repulsion = 1189.105268004678010

  Charge       = 0
  Multiplicity = 1
  Electrons    = 124
  Nalpha       = 62
  Nbeta        = 62

  ==> Algorithm <==

  SCF Algorithm Type is DF.
  DIIS enabled.
  MOM disabled.
  Fractional occupation disabled.
  Guess Type is READ.
  Energy threshold   = 1.00e-08
  Density threshold  = 1.00e-08
  Integral threshold = 0.00e+00

  ==> Primary Basis <==

  Basis Set: 6-31+G*
    Blend: 6-31+G*
    Number of shells: 144
    Number of basis function: 322
    Number of Cartesian functions: 322
    Spherical Harmonics?: false
    Max angular momentum: 2

  ==> DFT Potential <==

   => Composite Functional: WB97X-D <= 

    wB97X-D Hyb-GGA Exchange-Correlation Functional

    J.-D. Chai and M. Head-Gordon, Phys. Chem. Chem. Phys. 10, 6615 (2008)

    Deriv               =              1
    GGA                 =           TRUE
    Meta                =          FALSE

    Exchange Hybrid     =           TRUE
    MP2 Hybrid          =          FALSE

   => Exchange-Correlation Functionals <=

    1.0000   wB97D range-separated functional

   => Exact (HF) Exchange <=

    0.7780            HF,LR [omega = 0.2000]
    0.2220               HF 

   => Molecular Quadrature <=

    Radial Scheme          =       TREUTLER
    Pruning Scheme         =           FLAT
    Nuclear Scheme         =       TREUTLER

    BS radius alpha        =              1
    Pruning alpha          =              1
    Radial Points          =             75
    Spherical Points       =            302
    Total Points           =         520851
    Total Blocks           =           3869
    Max Points             =            256
    Max Functions          =            288

   => WB97X-D: Empirical Dispersion <=

    Chai and Head-Gordon Dispersion Correction
    Chai, J.-D.; Head-Gordon, M. (2010), J. Chem. Phys., 132: 6615-6620

        s6 =       1.000000

   => Loading Basis Set <=

    Name: (6-31+G* AUX)
    Role: JKFIT
    Keyword: DF_BASIS_SCF
    atoms 1             entry N          line   252 file /fsx/users/francis/anaconda3/envs/poltype-dev/share/psi4/basis/heavy-aug-cc-pvdz-jkfit.gbs 
    atoms 2-3, 6-12, 14 entry C          line   194 file /fsx/users/francis/anaconda3/envs/poltype-dev/share/psi4/basis/heavy-aug-cc-pvdz-jkfit.gbs 
    atoms 4-5           entry F          line   368 file /fsx/users/francis/anaconda3/envs/poltype-dev/share/psi4/basis/heavy-aug-cc-pvdz-jkfit.gbs 
    atoms 13            entry S          line   730 file /fsx/users/francis/anaconda3/envs/poltype-dev/share/psi4/basis/heavy-aug-cc-pvdz-jkfit.gbs 
    atoms 15-16         entry O          line   310 file /fsx/users/francis/anaconda3/envs/poltype-dev/share/psi4/basis/heavy-aug-cc-pvdz-jkfit.gbs 
    atoms 17-23         entry H          line   116 file /fsx/users/francis/anaconda3/envs/poltype-dev/share/psi4/basis/heavy-aug-cc-pvdz-jkfit.gbs 

   => Loading Basis Set <=

    Name: 6-31+G*
    Role: ORBITAL
    Keyword: BASIS
    atoms 1             entry N          line   138 file /fsx/users/francis/anaconda3/envs/poltype-dev/share/psi4/basis/6-31pgs.gbs 
    atoms 2-3, 6-12, 14 entry C          line   119 file /fsx/users/francis/anaconda3/envs/poltype-dev/share/psi4/basis/6-31pgs.gbs 
    atoms 4-5           entry F          line   176 file /fsx/users/francis/anaconda3/envs/poltype-dev/share/psi4/basis/6-31pgs.gbs 
    atoms 13            entry S          line   344 file /fsx/users/francis/anaconda3/envs/poltype-dev/share/psi4/basis/6-31pgs.gbs 
    atoms 15-16         entry O          line   157 file /fsx/users/francis/anaconda3/envs/poltype-dev/share/psi4/basis/6-31pgs.gbs 
    atoms 17-23         entry H          line    46 file /fsx/users/francis/anaconda3/envs/poltype-dev/share/psi4/basis/6-31pgs.gbs 

  Reading orbitals from file 180, no projection.

  ==> Pre-Iterations <==

   -------------------------------------------------------
    Irrep   Nso     Nmo     Nalpha   Nbeta   Ndocc  Nsocc
   -------------------------------------------------------
     A        322     322       0       0       0       0
   -------------------------------------------------------
    Total     322     322      62      62      62       0
   -------------------------------------------------------

  ==> Integral Setup <==

  ==> DiskDFJK: Density-Fitted J/K Matrices <==

    J tasked:                  Yes
    K tasked:                  Yes
    wK tasked:                 Yes
    Omega:               2.000E-01
    OpenMP threads:              8
    Integrals threads:           8
    Memory [MiB]:             8434
    Algorithm:                Core
    Integral Cache:           NONE
    Schwarz Cutoff:          1E-12
    Fitting Condition:       1E-10

   => Auxiliary Basis Set <=

  Basis Set: (6-31+G* AUX)
    Blend: HEAVY-AUG-CC-PVDZ-JKFIT
    Number of shells: 523
    Number of basis function: 1840
    Number of Cartesian functions: 1840
    Spherical Harmonics?: false
    Max angular momentum: 3

  Cached 100.0% of DFT collocation blocks in 2.939 [GiB].

  Minimum eigenvalue in the overlap matrix is 4.6519766724E-07.
  Using Symmetric Orthogonalization.

  SCF Guess: Orbitals guess was supplied from a previous computation.

  ==> Iterations <==

                           Total Energy        Delta E     RMS |[F,P]|

   @DF-RKS iter   0: -1188.31119392674077   -1.18831e+03   1.07123e-03 
   @DF-RKS iter   1: -1188.11777808831016    1.93416e-01   2.08091e-04 DIIS
   @DF-RKS iter   2: -1188.11767624621370    1.01842e-04   2.48646e-04 DIIS
   @DF-RKS iter   3: -1188.12014891233184   -2.47267e-03   5.12881e-05 DIIS
   @DF-RKS iter   4: -1188.12024422549189   -9.53132e-05   1.31037e-05 DIIS
   @DF-RKS iter   5: -1188.12025229549636   -8.07000e-06   5.82835e-06 DIIS
   @DF-RKS iter   6: -1188.12025397463776   -1.67914e-06   1.31095e-06 DIIS
   @DF-RKS iter   7: -1188.12025410642150   -1.31784e-07   4.66386e-07 DIIS
   @DF-RKS iter   8: -1188.12025413445372   -2.80322e-08   2.49568e-07 DIIS
   @DF-RKS iter   9: -1188.12025414089294   -6.43922e-09   1.05670e-07 DIIS
   @DF-RKS iter  10: -1188.12025414232471   -1.43177e-09   4.98011e-08 DIIS
   @DF-RKS iter  11: -1188.12025414259165   -2.66937e-10   1.57046e-08 DIIS
   @DF-RKS iter  12: -1188.12025414262507   -3.34239e-11   7.91508e-09 DIIS
  Energy and wave function converged.


  ==> Post-Iterations <==

    Orbital Energies [Eh]
    ---------------------

    Doubly Occupied:                                                      

       1A    -89.085227     2A    -24.871191     3A    -24.869688  
       4A    -19.301199     5A    -19.291579     6A    -14.540527  
       7A    -10.499265     8A    -10.452508     9A    -10.427252  
      10A    -10.404924    11A    -10.387128    12A    -10.356538  
      13A    -10.350166    14A    -10.346896    15A    -10.346168  
      16A    -10.340890    17A     -8.102896    18A     -6.053546  
      19A     -6.049136    20A     -6.043082    21A     -1.389100  
      22A     -1.327983    23A     -1.191428    24A     -1.180700  
      25A     -1.098901    26A     -1.007366    27A     -0.945114  
      28A     -0.907534    29A     -0.889062    30A     -0.869288  
      31A     -0.800877    32A     -0.765857    33A     -0.753811  
      34A     -0.745895    35A     -0.697123    36A     -0.683217  
      37A     -0.668776    38A     -0.646430    39A     -0.630034  
      40A     -0.592503    41A     -0.587743    42A     -0.568036  
      43A     -0.562461    44A     -0.558299    45A     -0.555002  
      46A     -0.553693    47A     -0.550340    48A     -0.534227  
      49A     -0.516537    50A     -0.515716    51A     -0.507190  
      52A     -0.498428    53A     -0.490106    54A     -0.486809  
      55A     -0.475036    56A     -0.442713    57A     -0.434955  
      58A     -0.398442    59A     -0.394183    60A     -0.363926  
      61A     -0.340363    62A     -0.318998  

    Virtual:                                                              

      63A     -0.042068    64A      0.015136    65A      0.039586  
      66A      0.045884    67A      0.057823    68A      0.066695  
      69A      0.068701    70A      0.073428    71A      0.080572  
      72A      0.087713    73A      0.094093    74A      0.097886  
      75A      0.104973    76A      0.111684    77A      0.114819  
      78A      0.116907    79A      0.119008    80A      0.136135  
      81A      0.138256    82A      0.141429    83A      0.144496  
      84A      0.151642    85A      0.158989    86A      0.165544  
      87A      0.172557    88A      0.175952    89A      0.178604  
      90A      0.180793    91A      0.183334    92A      0.193759  
      93A      0.197000    94A      0.201952    95A      0.205212  
      96A      0.210533    97A      0.215224    98A      0.221341  
      99A      0.223926   100A      0.231096   101A      0.236173  
     102A      0.239072   103A      0.244656   104A      0.245566  
     105A      0.247788   106A      0.251508   107A      0.260341  
     108A      0.264571   109A      0.267634   110A      0.277970  
     111A      0.279416   112A      0.289849   113A      0.291756  
     114A      0.295394   115A      0.303883   116A      0.308829  
     117A      0.313196   118A      0.318781   119A      0.321653  
     120A      0.329373   121A      0.332351   122A      0.338163  
     123A      0.341624   124A      0.345495   125A      0.360687  
     126A      0.362616   127A      0.365695   128A      0.376818  
     129A      0.384511   130A      0.389189   131A      0.394377  
     132A      0.396614   133A      0.401053   134A      0.408271  
     135A      0.413521   136A      0.419993   137A      0.431910  
     138A      0.444608   139A      0.449312   140A      0.451754  
     141A      0.461579   142A      0.476143   143A      0.478802  
     144A      0.486702   145A      0.509177   146A      0.518439  
     147A      0.531529   148A      0.535327   149A      0.544707  
     150A      0.556847   151A      0.578541   152A      0.580566  
     153A      0.593749   154A      0.609379   155A      0.615917  
     156A      0.633191   157A      0.656975   158A      0.671721  
     159A      0.691343   160A      0.714074   161A      0.727774  
     162A      0.745321   163A      0.755455   164A      0.758586  
     165A      0.770051   166A      0.778936   167A      0.788489  
     168A      0.801523   169A      0.809162   170A      0.822646  
     171A      0.828586   172A      0.848572   173A      0.864154  
     174A      0.876913   175A      0.884649   176A      0.890415  
     177A      0.897525   178A      0.920575   179A      0.933408  
     180A      0.936353   181A      0.962687   182A      0.971885  
     183A      0.981751   184A      0.992906   185A      1.024067  
     186A      1.028601   187A      1.044467   188A      1.058457  
     189A      1.070798   190A      1.076403   191A      1.095689  
     192A      1.109818   193A      1.121879   194A      1.156688  
     195A      1.166558   196A      1.174720   197A      1.205411  
     198A      1.209551   199A      1.212302   200A      1.228630  
     201A      1.239811   202A      1.247685   203A      1.271073  
     204A      1.283774   205A      1.288198   206A      1.327797  
     207A      1.330780   208A      1.336773   209A      1.350415  
     210A      1.394390   211A      1.406160   212A      1.414678  
     213A      1.417304   214A      1.425309   215A      1.445391  
     216A      1.451800   217A      1.458949   218A      1.468011  
     219A      1.477949   220A      1.489001   221A      1.515027  
     222A      1.521262   223A      1.530189   224A      1.536500  
     225A      1.560946   226A      1.603113   227A      1.628672  
     228A      1.662352   229A      1.675503   230A      1.686278  
     231A      1.717341   232A      1.750154   233A      1.760476  
     234A      1.761154   235A      1.763997   236A      1.769428  
     237A      1.780795   238A      1.790270   239A      1.792751  
     240A      1.829593   241A      1.841958   242A      1.879349  
     243A      1.894793   244A      1.899754   245A      1.916751  
     246A      1.924989   247A      1.927339   248A      1.965393  
     249A      1.971641   250A      1.977161   251A      1.984834  
     252A      2.021593   253A      2.047084   254A      2.056583  
     255A      2.066593   256A      2.070871   257A      2.092255  
     258A      2.119396   259A      2.122272   260A      2.143427  
     261A      2.176679   262A      2.180060   263A      2.188850  
     264A      2.217235   265A      2.225748   266A      2.236380  
     267A      2.259009   268A      2.261429   269A      2.274463  
     270A      2.291695   271A      2.314313   272A      2.325488  
     273A      2.329353   274A      2.358611   275A      2.363562  
     276A      2.386141   277A      2.396294   278A      2.434007  
     279A      2.480491   280A      2.491132   281A      2.532004  
     282A      2.559747   283A      2.605310   284A      2.655663  
     285A      2.692242   286A      2.702921   287A      2.734617  
     288A      2.764053   289A      2.772083   290A      2.790351  
     291A      2.796850   292A      2.842795   293A      2.852030  
     294A      2.884986   295A      2.933782   296A      2.972945  
     297A      2.987083   298A      3.056858   299A      3.151595  
     300A      3.190494   301A      3.230817   302A      3.260342  
     303A      3.372211   304A      3.427529   305A      3.516604  
     306A      3.525554   307A      4.042676   308A      4.303097  
     309A      4.318235   310A      4.355878   311A      4.367645  
     312A      4.395950   313A      4.431248   314A      4.488386  
     315A      4.494918   316A      4.533847   317A      4.603709  
     318A      4.822382   319A      4.883197   320A      5.160453  
     321A      5.726484   322A      7.251158  

    Final Occupation by Irrep:
              A 
    DOCC [    62 ]

  @DF-RKS Final Energy: -1188.12025414262507

   => Energetics <=

    Nuclear Repulsion Energy =           1189.1052680046780097
    One-Electron Energy =               -3992.1811070977555573
    Two-Electron Energy =                1704.5317564297261015
    DFT Exchange-Correlation Energy =     -89.5626213631282440
    Empirical Dispersion Energy =          -0.0135501161450535
    VV10 Nonlocal Energy =                  0.0000000000000000
    Total Energy =                      -1188.1202541426250718

Computation Completed


Properties will be evaluated at   0.000000,   0.000000,   0.000000 [a0]

Properties computed using the SCF density matrix

  Nuclear Dipole Moment: [e a0]
     X:    25.9238      Y:    -0.4592      Z:    -4.4750

  Electronic Dipole Moment: [e a0]
     X:   -22.7223      Y:     0.0426      Z:     3.8791

  Dipole Moment: [e a0]
     X:     3.2015      Y:    -0.4166      Z:    -0.5959     Total:     3.2830

  Dipole Moment: [D]
     X:     8.1374      Y:    -1.0590      Z:    -1.5147     Total:     8.3446


*** tstop() called on cpu-spot-dy-c5n2xlarge-1 at Tue Jun 22 06:01:44 2021
Module time:
	user time   =     458.98 seconds =       7.65 minutes
	system time =       7.03 seconds =       0.12 minutes
	total time  =         70 seconds =       1.17 minutes
Total time:
	user time   =    1185.83 seconds =      19.76 minutes
	system time =      24.41 seconds =       0.41 minutes
	total time  =        185 seconds =       3.08 minutes

*** tstart() called on cpu-spot-dy-c5n2xlarge-1
*** at Tue Jun 22 06:01:44 2021


         ------------------------------------------------------------
                                   SCF GRAD                          
                          Rob Parrish, Justin Turney,                
                       Andy Simmonett, and Alex Sokolov              
         ------------------------------------------------------------

  ==> Geometry <==

    Molecular point group: c1
    Full point group: C1

    Geometry (in Angstrom), charge = 0, multiplicity = 1:

       Center              X                  Y                   Z               Mass       
    ------------   -----------------  -----------------  -----------------  -----------------
         N           -1.024601936434    -1.484651471378     0.102426204119    14.003074004430
         C           -2.316413840358    -1.132091512954     0.388625875174    12.000000000000
         C           -2.590464648633     0.381710325299     0.514182500532    12.000000000000
         F           -3.484609393708     0.709757233885    -0.454928142851    18.998403162730
         F           -3.181418076151     0.590847031383     1.717514483213    18.998403162730
         C           -1.386407917952     1.346536335973     0.393180388999    12.000000000000
         C           -0.080995216845     0.754267596028     0.082173959786    12.000000000000
         C            1.042663681084     1.570658036642    -0.065122442769    12.000000000000
         C            2.282964787868     1.038088958011    -0.361651801098    12.000000000000
         C            2.420793792370    -0.346590584673    -0.529066143817    12.000000000000
         C            1.309650308400    -1.177313123629    -0.361328065384    12.000000000000
         C            0.069449483985    -0.633706738780    -0.063253792782    12.000000000000
         S            3.925880763956    -1.176344714448    -0.901455839288    31.972071174400
         C            5.162394205776     0.155911208931    -0.860175240146    12.000000000000
         O           -3.201827664307    -1.948137369453     0.530295051885    15.994914619570
         O           -1.581556544602     2.532683344446     0.548753181334    15.994914619570
         H            3.133226195332     1.705314643701    -0.453606622364     1.007825032230
         H            0.918341616006     2.640806822303     0.062436264715     1.007825032230
         H           -0.883352297496    -2.484714272548     0.017766285002     1.007825032230
         H            1.414795525303    -2.254273529851    -0.471281908301     1.007825032230
         H            5.990238552583    -0.188778175247    -1.481936088549     1.007825032230
         H            4.774457582843     1.072361524090    -1.313165637629     1.007825032230
         H            5.508215841145     0.353723416321     0.156977800310     1.007825032230

  Nuclear repulsion = 1189.105268004678010

  ==> Basis Set <==

  Basis Set: 6-31+G*
    Blend: 6-31+G*
    Number of shells: 144
    Number of basis function: 322
    Number of Cartesian functions: 322
    Spherical Harmonics?: false
    Max angular momentum: 2

  ==> DFJKGrad: Density-Fitted SCF Gradients <==

    Gradient:                    1
    J tasked:                  Yes
    K tasked:                  Yes
    wK tasked:                 Yes
    Omega:               2.000E-01
    OpenMP threads:              8
    Integrals threads:           8
    Memory [MiB]:            11444
    Schwarz Cutoff:          0E+00
    Fitting Condition:       1E-10

   => Auxiliary Basis Set <=

  Basis Set: (6-31+G* AUX)
    Blend: HEAVY-AUG-CC-PVDZ-JKFIT
    Number of shells: 523
    Number of basis function: 1840
    Number of Cartesian functions: 1840
    Spherical Harmonics?: false
    Max angular momentum: 3

  ==> DFT Potential <==

   => Composite Functional: WB97X-D <= 

    wB97X-D Hyb-GGA Exchange-Correlation Functional

    J.-D. Chai and M. Head-Gordon, Phys. Chem. Chem. Phys. 10, 6615 (2008)

    Deriv               =              1
    GGA                 =           TRUE
    Meta                =          FALSE

    Exchange Hybrid     =           TRUE
    MP2 Hybrid          =          FALSE

   => Exchange-Correlation Functionals <=

    1.0000   wB97D range-separated functional

   => Exact (HF) Exchange <=

    0.7780            HF,LR [omega = 0.2000]
    0.2220               HF 

   => Molecular Quadrature <=

    Radial Scheme          =       TREUTLER
    Pruning Scheme         =           FLAT
    Nuclear Scheme         =       TREUTLER

    BS radius alpha        =              1
    Pruning alpha          =              1
    Radial Points          =             75
    Spherical Points       =            302
    Total Points           =         520851
    Total Blocks           =           3869
    Max Points             =            256
    Max Functions          =            288


  -Total Gradient:
     Atom            X                  Y                   Z
    ------   -----------------  -----------------  -----------------
       1        0.002327675625     0.002829077151     0.000063439983
       2        0.002566974468     0.004197607268    -0.000633640248
       3        0.004869049283    -0.000808592751    -0.002492822954
       4       -0.001050456673     0.000286966087     0.000062028905
       5       -0.001438812640     0.000534394373     0.002000156782
       6       -0.002658741740    -0.003081064250     0.000212883023
       7        0.001744361892    -0.001362562410    -0.000519044976
       8        0.000149555986     0.000083788694     0.000277350062
       9       -0.001798068866    -0.003029605436     0.000209798729
      10       -0.000494841493     0.002734017627    -0.004839363600
      11        0.000321335665     0.001015380165     0.002100472208
      12        0.003205007064    -0.000109322359    -0.000581866644
      13       -0.003355161109    -0.004533600873     0.001617151273
      14        0.001585113508     0.001184090361     0.003225704121
      15       -0.003387906354    -0.003850056759     0.000561451376
      16        0.000256483848     0.001547620110    -0.000008816373
      17        0.002031690442     0.000832344404    -0.000574773473
      18        0.000282554311    -0.000529907882    -0.000068426061
      19       -0.000948744540    -0.000491551577     0.000333953026
      20       -0.000138318973    -0.000277383948    -0.000229371241
      21       -0.001970349703     0.000656227785    -0.001925575278
      22       -0.001777627778     0.002015634138     0.000669083331
      23        0.000502337533    -0.000173053761     0.000412142806


*** tstop() called on cpu-spot-dy-c5n2xlarge-1 at Tue Jun 22 06:02:10 2021
Module time:
	user time   =     148.91 seconds =       2.48 minutes
	system time =       3.91 seconds =       0.07 minutes
[...]
	   Coordinate                Previous        Force       Change         New 
	   ----------                --------       ------       ------       ------
	    1 R(1,2)          =      1.369855     0.000049    -0.000081     1.369774
	    2 R(1,12)         =      1.397881    -0.000086    -0.000068     1.397813
	    3 R(1,19)         =      1.012930     0.000123     0.000171     1.013102
	    4 R(2,3)          =      1.548094    -0.001632    -0.000925     1.547169
	    5 R(2,15)         =      1.208806    -0.000479    -0.000275     1.208531
	    6 R(3,4)          =      1.370597    -0.003310    -0.000606     1.369991
	    7 R(3,5)          =      1.340396     0.002330     0.000409     1.340805
	    8 R(3,6)          =      1.552284    -0.001318    -0.000795     1.551489
	    9 R(6,7)          =      1.466561    -0.000733    -0.000368     1.466193
	   10 R(6,16)         =      1.210592    -0.000245    -0.000157     1.210435
	   11 R(7,8)          =      1.398734    -0.001532    -0.000401     1.398333
	   12 R(7,12)         =      1.405138     0.001141     0.000226     1.405364
	   13 R(8,9)          =      1.382692     0.001121     0.000161     1.382853
	   14 R(8,18)         =      1.085855    -0.000158    -0.000107     1.085749
	   15 R(9,10)         =      1.404787    -0.002628    -0.000861     1.403926
	   16 R(9,17)         =      1.082593    -0.000210    -0.000345     1.082248
	   17 R(10,11)        =      1.398392     0.002671     0.000944     1.399336
	   18 R(10,13)        =      1.763347    -0.000326    -0.000055     1.763292
	   19 R(11,12)        =      1.390747    -0.001144    -0.000108     1.390639
	   20 R(11,20)        =      1.087473    -0.000387    -0.000195     1.087277
	   21 R(13,14)        =      1.808424     0.003970     0.001985     1.810408
	   22 R(14,21)        =      1.091850     0.000138     0.000142     1.091992
	   23 R(14,22)        =      1.092025    -0.000536    -0.000250     1.091775
	   24 R(14,23)        =      1.091635    -0.000679    -0.000286     1.091349
	   25 B(1,2,3)        =    115.191069     0.000003     0.039047   115.230116
	   26 B(1,2,15)       =    123.046483    -0.000001    -0.006002   123.040481
	   27 B(1,12,7)       =    120.870803    -0.000008    -0.047603   120.823200
	   28 B(1,12,11)      =    119.017576     0.000004     0.026413   119.043988
	   29 B(2,1,12)       =    126.764910    -0.000000    -0.021299   126.743611
	   30 B(2,1,19)       =    114.709154    -0.000001    -0.005039   114.704115
	   31 B(2,3,4)        =    106.048519    -0.000006    -0.054378   105.994141
	   32 B(2,3,5)        =    108.745251     0.000008     0.081232   108.826483
	   33 B(2,3,6)        =    117.137732     0.000003    -0.004412   117.133320
	   34 B(3,2,15)       =    121.680156    -0.000001    -0.026610   121.653546
	   35 B(3,6,7)        =    116.026146     0.000001     0.011801   116.037947
	   36 B(3,6,16)       =    119.010289    -0.000000    -0.008301   119.001988
	   37 B(4,3,5)        =    108.329160     0.000002     0.048411   108.377571
	   38 B(4,3,6)        =    106.279241    -0.000003    -0.048054   106.231187
	   39 B(5,3,6)        =    109.914730    -0.000004    -0.022563   109.892166
	   40 B(6,7,8)        =    120.325280     0.000001    -0.003066   120.322213
	   41 B(6,7,12)       =    120.854888     0.000003     0.025251   120.880139
	   42 B(7,6,16)       =    124.894568     0.000000     0.006142   124.900710
	   43 B(7,8,9)        =    121.488550     0.000001     0.010271   121.498822
	   44 B(7,8,18)       =    117.869486     0.000013     0.095286   117.964772
	   45 B(7,12,11)      =    120.094483     0.000004     0.021110   120.115592
	   46 B(8,7,12)       =    118.790963    -0.000004    -0.019104   118.771859
	   47 B(8,9,10)       =    119.508205     0.000005     0.029729   119.537934
	   48 B(8,9,17)       =    119.235593    -0.000011    -0.073732   119.161861
	   49 B(9,8,18)       =    120.641749    -0.000014    -0.105520   120.536228
	   50 B(9,10,11)      =    119.576143    -0.000002    -0.014480   119.561663
	   51 B(9,10,13)      =    124.898220     0.000015     0.075680   124.973900
	   52 B(10,9,17)      =    121.254811     0.000005     0.043984   121.298795
	   53 B(10,11,12)     =    120.510933    -0.000005    -0.026750   120.484184
	   54 B(10,11,20)     =    119.759772     0.000003     0.037346   119.797119
	   55 B(10,13,14)     =    104.710368     0.000001     0.052479   104.762846
	   56 B(11,10,13)     =    115.502513    -0.000013    -0.061187   115.441327
	   57 B(12,1,19)      =    118.426999     0.000001     0.014058   118.441057
	   58 B(12,11,20)     =    119.728422     0.000002    -0.010291   119.718132
	   59 B(13,14,21)     =    106.093350    -0.000011    -0.074341   106.019008
	   60 B(13,14,22)     =    111.503024    -0.000019    -0.151791   111.351234
	   61 B(13,14,23)     =    112.053077    -0.000010    -0.060006   111.993071
	   62 B(21,14,22)     =    106.330094     0.000007     0.023187   106.353280
	   63 B(21,14,23)     =    110.469011     0.000020     0.183100   110.652111
	   64 B(22,14,23)     =    110.165030     0.000013     0.082884   110.247914
	   65 D(1,2,3,4)      =     99.436884    -0.000001    -0.148481    99.288403
	   66 D(1,2,3,5)      =   -144.256199    -0.000000    -0.080798  -144.336997
	   67 D(1,2,3,6)      =    -18.936344     0.000001    -0.044483   -18.980827
	   68 D(1,12,7,6)     =     -0.180182    -0.000001    -0.047682    -0.227864
	   69 D(1,12,7,8)     =    177.871673     0.000000     0.059093   177.930766
	   70 D(1,12,11,10)   =   -179.398807    -0.000000    -0.021476  -179.420283
	   71 D(1,12,11,20)   =      0.941701    -0.000001    -0.087748     0.853953
	   72 D(2,1,12,7)     =      1.567578     0.000000    -0.049858     1.517720
	   73 D(2,1,12,11)    =   -179.937019     0.000001    -0.053036  -179.990054
	   74 D(2,3,6,7)      =     20.250782    -0.000001    -0.043643    20.207139
	   75 D(2,3,6,16)     =   -162.621566     0.000002     0.164646  -162.456920
	   76 D(3,2,1,12)     =      8.391908    -0.000001     0.091967     8.483875
	   77 D(3,2,1,19)     =   -175.309262    -0.000002    -0.130087  -175.439350
	   78 D(3,6,7,8)      =    171.088370     0.000000    -0.021686   171.066684
	   79 D(3,6,7,12)     =    -10.889601     0.000001     0.086441   -10.803159
	   80 D(4,3,2,15)     =    -77.359588    -0.000004    -0.276102   -77.635690
	   81 D(4,3,6,7)      =    -97.998306     0.000001     0.063896   -97.934411
	   82 D(4,3,6,16)     =     79.129345     0.000004     0.272185    79.401530
	   83 D(5,3,2,15)     =     38.947328    -0.000004    -0.208419    38.738909
	   84 D(5,3,6,7)      =    144.985341     0.000001     0.044985   145.030326
	   85 D(5,3,6,16)     =    -37.887008     0.000004     0.253274   -37.633734
	   86 D(6,3,2,15)     =    164.267183    -0.000003    -0.172104   164.095080
	   87 D(6,7,8,9)      =    179.095820     0.000001     0.032965   179.128785
	   88 D(6,7,8,18)     =     -0.736298     0.000000     0.018025    -0.718273
	   89 D(6,7,12,11)    =   -178.659459    -0.000001    -0.044535  -178.703994
	   90 D(7,8,9,10)     =      0.046919     0.000000     0.048645     0.095564
	   91 D(7,8,9,17)     =   -179.529496     0.000000     0.051337  -179.478159
	   92 D(7,12,1,19)    =   -174.608951     0.000002     0.180261  -174.428690
	   93 D(7,12,11,10)   =     -0.891448    -0.000000    -0.025690    -0.917139
	   94 D(7,12,11,20)   =    179.449060    -0.000001    -0.091963   179.357097
	   95 D(8,7,6,16)     =     -5.848855    -0.000003    -0.243365    -6.092220
	   96 D(8,7,12,11)    =     -0.607603     0.000000     0.062240    -0.545363
	   97 D(8,9,10,11)    =     -1.550420    -0.000000    -0.010705    -1.561125
	   98 D(8,9,10,13)    =   -179.719339    -0.000000    -0.010035  -179.729375
	   99 D(9,8,7,12)     =      1.033344    -0.000000    -0.073768     0.959577
	  100 D(9,10,11,12)   =      1.977408    -0.000000    -0.000699     1.976709
	  101 D(9,10,11,20)   =   -178.363206     0.000000     0.065464  -178.297743
	  102 *D(9,10,13,14)  =      4.502288     0.000000    -0.000000     4.502288
	  103 D(10,9,8,18)    =    179.874424     0.000001     0.064304   179.938728
	  104 *D(10,13,14,21) =   -156.123429     0.000000    -0.000000  -156.123429
	  105 D(10,13,14,22)  =    -40.770345    -0.000002    -0.091368   -40.861713
	  106 D(10,13,14,23)  =     83.241290    -0.000003    -0.141635    83.099656
	  107 D(11,10,9,17)   =    178.017199    -0.000000    -0.013969   178.003230
	  108 *D(11,10,13,14) =   -173.733330     0.000000     0.000000  -173.733330
	  109 D(11,12,1,19)   =      3.886452     0.000002     0.177084     4.063536
	  110 D(12,1,2,15)    =   -174.860455     0.000003     0.220855  -174.639600
	  111 D(12,7,6,16)    =    172.173174    -0.000002    -0.135238   172.037936
	  112 D(12,7,8,18)    =   -178.798774    -0.000001    -0.088707  -178.887481
	  113 D(12,11,10,13)  =   -179.686461     0.000000     0.001074  -179.685387
	  114 D(13,10,9,17)   =     -0.151720    -0.000000    -0.013300    -0.165020
	  115 D(13,10,11,20)  =     -0.027075     0.000001     0.067237     0.040162
	  116 D(15,2,1,19)    =      1.438375     0.000002    -0.001199     1.437175
	  117 D(17,9,8,18)    =      0.298009     0.000001     0.066996     0.365005
	  118 R(1,X)          =     -1.011167    -0.000719    -0.000850    -1.012018
	  119 R(1,Y)          =     -1.500921     0.000307     0.000162    -1.500759
	  120 R(1,Z)          =      0.183144    -0.000719    -0.001372     0.181772
	  121 R(2,X)          =     -2.289787    -0.000629    -0.000326    -2.290113
	  122 R(2,Y)          =     -1.155344     0.001435     0.000931    -1.154412
	  123 R(2,Z)          =      0.532730    -0.001315    -0.000534     0.532197
	  124 R(3,X)          =     -2.590862     0.000123    -0.000319    -2.591181
	  125 R(3,Y)          =      0.363058    -0.000073    -0.000009     0.363049
	  126 R(3,Z)          =      0.512566    -0.000874    -0.000381     0.512185
	  127 R(4,X)          =     -3.231701     0.003178     0.002102    -3.229600
	  128 R(4,Y)          =      0.606542    -0.001513    -0.000942     0.605599
	  129 R(4,Z)          =     -0.674269     0.001005    -0.001177    -0.675446
	  130 R(5,X)          =     -3.435259    -0.001831    -0.001192    -3.436451
	  131 R(5,Y)          =      0.648097     0.002268     0.001595     0.649693
	  132 R(5,Z)          =      1.513769    -0.000070    -0.001028     1.512742
	  133 R(6,X)          =     -1.374668    -0.001239    -0.000977    -1.375645
	  134 R(6,Y)          =      1.326678    -0.000477    -0.000461     1.326217
	  135 R(6,Z)          =      0.556073    -0.000895    -0.000347     0.555726
	  136 R(7,X)          =     -0.085552    -0.001368    -0.000978    -0.086531
	  137 R(7,Y)          =      0.754424     0.000296    -0.000234     0.754190
	  138 R(7,Z)          =      0.154193     0.000264     0.000670     0.154862
	  139 R(8,X)          =      1.030125    -0.002705    -0.001537     1.028588
	  140 R(8,Y)          =      1.579935    -0.000399    -0.000199     1.579735
	  141 R(8,Z)          =     -0.019735     0.000715     0.000470    -0.019265
	  142 R(9,X)          =      2.261226    -0.001458    -0.001137     2.260089
	  143 R(9,Y)          =      1.063879    -0.000267     0.000212     1.064091
	  144 R(9,Z)          =     -0.380172     0.000485     0.000629    -0.379543
	  145 R(10,X)         =      2.400256     0.000289    -0.000106     2.400149
	  146 R(10,Y)         =     -0.319879     0.002638     0.001282    -0.318597
	  147 R(10,Z)         =     -0.578443     0.000059    -0.000005    -0.578449
	  148 R(11,X)         =      1.300591    -0.001033    -0.000443     1.300148
	  149 R(11,Y)         =     -1.159927    -0.000140     0.000029    -1.159899
	  150 R(11,Z)         =     -0.377058    -0.000199    -0.000521    -0.377578
	  151 R(12,X)         =      0.063884    -0.000038    -0.000445     0.063439
	  152 R(12,Y)         =     -0.631487    -0.000620    -0.000251    -0.631738
	  153 R(12,Z)         =     -0.022822    -0.000499    -0.000533    -0.023355
	  154 R(13,X)         =      3.900349    -0.001249    -0.000519     3.899830
	  155 R(13,Y)         =     -1.128400     0.000454     0.000672    -1.127729
	  156 R(13,Z)         =     -1.031659     0.000134    -0.000068    -1.031727
	  157 R(14,X)         =      5.146926     0.003690     0.002668     5.149594
	  158 R(14,Y)         =      0.181729     0.001235     0.000377     0.182105
	  159 R(14,Z)         =     -1.029555    -0.000128    -0.000040    -1.029595
	  160 R(15,X)         =     -3.147909    -0.000109     0.000301    -3.147607
	  161 R(15,Y)         =     -1.969438     0.002375     0.001590    -1.967848
	  162 R(15,Z)         =      0.781907     0.001223     0.002427     0.784334
	  163 R(16,X)         =     -1.553881    -0.001360    -0.000710    -1.554592
	  164 R(16,Y)         =      2.484927    -0.001332    -0.001377     2.483550
	  165 R(16,Z)         =      0.859183     0.001323     0.002667     0.861850
	  166 R(17,X)         =      3.102238    -0.003166    -0.002335     3.099903
	  167 R(17,Y)         =      1.735413     0.001737     0.001333     1.736746
	  168 R(17,Z)         =     -0.497428     0.001653     0.001657    -0.495772
	  169 R(18,X)         =      0.902386    -0.000188    -0.000160     0.902227
	  170 R(18,Y)         =      2.646326    -0.000110     0.000007     2.646332
	  171 R(18,Z)         =      0.140187    -0.000279    -0.000537     0.139650
	  172 R(19,X)         =     -0.842585    -0.001540    -0.000948    -0.843533
	  173 R(19,Y)         =     -2.498107    -0.000026    -0.000150    -2.498256
	  174 R(19,Z)         =      0.126325     0.000494     0.000788     0.127112
	  175 R(20,X)         =      1.411680    -0.000640    -0.000287     1.411393
	  176 R(20,Y)         =     -2.234269     0.000277     0.000159    -2.234110
	  177 R(20,Z)         =     -0.503732    -0.000067     0.000189    -0.503543
	  178 R(21,X)         =      5.944168     0.001920     0.001529     5.945698
	  179 R(21,Y)         =     -0.157995    -0.002301    -0.001906    -0.159902
	  180 R(21,Z)         =     -1.693731    -0.000671    -0.000468    -1.694198
	  181 R(22,X)         =      4.757963     0.002195     0.001960     4.759923
	  182 R(22,Y)         =      1.105047    -0.000904    -0.001023     1.104024
	  183 R(22,Z)         =     -1.463964    -0.001988    -0.001746    -1.465709
	  184 R(23,X)         =      5.539145     0.000745     0.000431     5.539576
	  185 R(23,Y)         =      0.372691     0.000561     0.000585     0.373276
	  186 R(23,Z)         =     -0.028873     0.000415     0.000483    -0.028390
	 ---------------------------------------------------------------------------
	Successfully symmetrized geometry.

  ==> Convergence Check <==

  Measures of convergence in internal coordinates in au.
  Criteria marked as inactive (o), active & met (*), and active & unmet ( ).
  ---------------------------------------------------------------------------------------------
   Step     Total Energy     Delta E     MAX Force     RMS Force      MAX Disp      RMS Disp   
  ---------------------------------------------------------------------------------------------
    Convergence Criteria             o    2.50e-03 *    1.70e-03 *    1.00e-02 *    6.70e-03 *
  ---------------------------------------------------------------------------------------------
      2   -1188.12132016   -7.76e-05 o    4.82e-04 *    1.38e-04 *    5.04e-03 *    1.73e-03 *  ~
  ---------------------------------------------------------------------------------------------


  **** Optimization is complete! (in 2 steps) ****

  ==> Optimization Summary <==

  Measures of convergence in internal coordinates in au.
  --------------------------------------------------------------------------------------------------------------- ~
   Step         Total Energy             Delta E       MAX Force       RMS Force        MAX Disp        RMS Disp  ~
  --------------------------------------------------------------------------------------------------------------- ~
      1   -1188.121242537846  -1188.121242537846      0.00103267      0.00027804      0.01881126      0.00458401  ~
      2   -1188.121320163797     -0.000077625952      0.00048189      0.00013787      0.00504204      0.00173357  ~
  --------------------------------------------------------------------------------------------------------------- ~

	Writing optimization data to binary file.
	Final energy is  -1188.1213201637975
	Final (previous) structure:
	Cartesian Geometry (in Angstrom)
	    N    -1.0111672824  -1.5009207321   0.1831435546
	    C    -2.2897869903  -1.1553436069   0.5327302921
	    C    -2.5908617209   0.3630576282   0.5125664773
	    F    -3.2317012524   0.6065415821  -0.6742686003
	    F    -3.4352590688   0.6480971060   1.5137691670
	    C    -1.3746677602   1.3266780702   0.5560731329
	    C    -0.0855524084   0.7544237142   0.1541926271
	    C     1.0301251206   1.5799346144  -0.0197352722
	    C     2.2612260557   1.0638788974  -0.3801720670
	    C     2.4002555183  -0.3198789063  -0.5784432779
	    C     1.3005913026  -1.1599274204  -0.3770576113
	    C     0.0638839794  -0.6314867194  -0.0228216089
	    S     3.9003491164  -1.1284003231  -1.0316587177
	    C     5.1469258372   0.1817285911  -1.0295553978
	    O    -3.1479086463  -1.9694377394   0.7819072776
	    O    -1.5538814185   2.4849266484   0.8591827432
	    H     3.1022381858   1.7354128046  -0.4974284994
	    H     0.9023864942   2.6463255271   0.1401869515
	    H    -0.8425850382  -2.4981065190   0.1263248314
	    H     1.4116804122  -2.2342687718  -0.5037317405
	    H     5.9441684260  -0.1579951389  -1.6937306147
	    H     4.7579627965   1.1050467038  -1.4639636500
	    H     5.5391449297   0.3726905880  -0.0288729542
	Saving final (previous) structure.
			--------------------------
			 OPTKING Finished Execution 
			--------------------------

    Final optimized geometry and variables:
    Molecular point group: c1
    Full point group: C1

    Geometry (in Angstrom), charge = 0, multiplicity = 1:

    N           -1.011167286364    -1.500920738036     0.183143555344
    C           -2.289786999271    -1.155343611439     0.532730294192
    C           -2.590861731113     0.363057629651     0.512566479302
    F           -3.231701265113     0.606541584492    -0.674268602996
    F           -3.435259082285     0.648097108565     1.513769172927
    C           -1.374667765613     1.326678075409     0.556073135042
    C           -0.085552408771     0.754423717199     0.154192627688
    C            1.030125124653     1.579934620573    -0.019735272301
    C            2.261226064628     1.063878901542    -0.380172068511
    C            2.400255527743    -0.319878907526    -0.578443280222
    C            1.300591307689    -1.159927424922    -0.377057612794
    C            0.063883979623    -0.631486721896    -0.022821608949
    S            3.900349131734    -1.128400327531    -1.031658721780
    C            5.146925857436     0.181728591768    -1.029555401805
    O           -3.147908658692    -1.969437747165     0.781907280675
    O           -1.553881424638     2.484926658173     0.859182746600
    H            3.102238197951     1.735412811467    -0.497428501326
    H            0.902386497722     2.646325537515     0.140186952096
    H           -0.842585041471    -2.498106528857     0.126324831903
    H            1.411680417710    -2.234268780590    -0.503731742437
    H            5.944168449339    -0.157995139544    -1.693730621355
    H            4.757962815185     1.105046708150    -1.463963655780
    H            5.539144951483     0.372690589512    -0.028872954317

	Removing binary optimization data file.
	Cleaning optimization helper files.

    Psi4 stopped on: Tuesday, 22 June 2021 06:22AM
    Psi4 wall time for execution: 0:23:36.33

*** Psi4 exiting successfully. Buy a developer a beer!
