
    -----------------------------------------------------------------------
          Psi4: An Open-Source Ab Initio Electronic Structure Package
                               Psi4 1.3.2 release

                         Git: Rev {HEAD} ecbda83 


    R. M. Parrish, L. A. Burns, D. G. A. Smith, A. C. Simmonett,
    A. E. DePrince III, E. G. Hohenstein, U. Bozkaya, A. Yu. Sokolov,
    R. Di Remigio, R. M. Richard, J. F. Gonthier, A. M. James,
    H. R. McAlexander, A. Kumar, M. Saitow, X. Wang, B. P. Pritchard,
    P. Verma, H. F. Schaefer III, K. Patkowski, R. A. King, E. F. Valeev,
    F. A. Evangelista, J. M. Turney, T. D. Crawford, and C. D. Sherrill,
    J. Chem. Theory Comput. 13(7) pp 3185--3197 (2017).
    (doi: 10.1021/acs.jctc.7b00174)


                         Additional Contributions by
    P. Kraus, H. Kruse, M. H. Lechner, M. C. Schieber, R. A. Shaw,
    A. Alenaizan, R. Galvelis, Z. L. Glick, S. Lehtola, and J. P. Misiewicz

    -----------------------------------------------------------------------


    Psi4 started on: Tuesday, 22 June 2021 02:46AM

    Process ID: 22297
    Host:       cpu-spot-dy-c5n2xlarge-1
    PSIDATADIR: /fsx/users/francis/anaconda3/envs/poltype-dev/share/psi4
    Memory:     500.0 MiB
    Threads:    1
    
  ==> Input File <==

--------------------------------------------------------------------------
molecule { 
0 1
 N   -1.071580   -1.484406    0.163644
 C   -2.379234   -1.146555    0.393066
 C   -2.694841    0.385428    0.429305
 F   -3.666387    0.630102   -0.515210
 F   -3.218975    0.669403    1.670285
 C   -1.504779    1.373742    0.169308
 C   -0.163603    0.787913   -0.058061
 C    0.949195    1.627305   -0.283537
 C    2.228808    1.093881   -0.487345
 C    2.428953   -0.314447   -0.491633
 C    1.312390   -1.150671   -0.267057
 C    0.028100   -0.620645   -0.053652
 S    3.975132   -1.168968   -0.705231
 C    5.290557    0.078226   -0.789526
 O   -3.222584   -2.016010    0.558949
 O   -1.691328    2.586908    0.166106
 H    3.054259    1.790385   -0.620763
 H    0.788729    2.706051   -0.286534
 H   -0.931680   -2.485467    0.155230
 H    1.448866   -2.233299   -0.252247
 H    4.942679    0.971303   -1.313977
 H    5.588584    0.345890    0.229013
 H    6.146770   -0.348127   -1.321098
}
set optking { 
  frozen_dihedral = ("
    11 10 13 14
    9 10 13 14
    21 14 13 10
  ")
}
set {
  geom_maxiter 400
  g_convergence GAU_LOOSE
  dynamic_level 1
}
memory 16GB
set_num_threads(8)
psi4_io.set_default_path("/scratch/Psi4-ligand")
for _ in range(1):
  try:
    set opt_coordinates both
    optimize('wb97x-d/6-31+G*')
    break
  except OptimizationConvergenceError:
    break
  else:
    try:
      set opt_coordinates cartesian
      optimize('wb97x-d/6-31+G*')
      break
    except OptimizationConvergenceError:
      pass
clean()
--------------------------------------------------------------------------

  Memory set to  14.901 GiB by Python driver.
  Threads set to 8 by Python driver.
gradient() will perform analytic gradient computation.

*** tstart() called on cpu-spot-dy-c5n2xlarge-1
*** at Tue Jun 22 02:46:21 2021

   => Loading Basis Set <=

    Name: 6-31+G*
    Role: ORBITAL
    Keyword: BASIS
    atoms 1             entry N          line   138 file /fsx/users/francis/anaconda3/envs/poltype-dev/share/psi4/basis/6-31pgs.gbs 
    atoms 2-3, 6-12, 14 entry C          line   119 file /fsx/users/francis/anaconda3/envs/poltype-dev/share/psi4/basis/6-31pgs.gbs 
    atoms 4-5           entry F          line   176 file /fsx/users/francis/anaconda3/envs/poltype-dev/share/psi4/basis/6-31pgs.gbs 
    atoms 13            entry S          line   344 file /fsx/users/francis/anaconda3/envs/poltype-dev/share/psi4/basis/6-31pgs.gbs 
    atoms 15-16         entry O          line   157 file /fsx/users/francis/anaconda3/envs/poltype-dev/share/psi4/basis/6-31pgs.gbs 
    atoms 17-23         entry H          line    46 file /fsx/users/francis/anaconda3/envs/poltype-dev/share/psi4/basis/6-31pgs.gbs 


         ---------------------------------------------------------
                                   SCF
               by Justin Turney, Rob Parrish, Andy Simmonett
                          and Daniel G. A. Smith
                              RKS Reference
                        8 Threads,  15258 MiB Core
         ---------------------------------------------------------

  ==> Geometry <==

    Molecular point group: c1
    Full point group: C1

    Geometry (in Angstrom), charge = 0, multiplicity = 1:

       Center              X                  Y                   Z               Mass       
    ------------   -----------------  -----------------  -----------------  -----------------
         N           -1.029725595443    -1.491739297632     0.194181218355    14.003074004430
         C           -2.337379595443    -1.153888297632     0.423603218355    12.000000000000
         C           -2.652986595443     0.378094702368     0.459842218355    12.000000000000
         F           -3.624532595443     0.622768702368    -0.484672781645    18.998403162730
         F           -3.177120595443     0.662069702368     1.700822218355    18.998403162730
         C           -1.462924595443     1.366408702368     0.199845218355    12.000000000000
         C           -0.121748595443     0.780579702368    -0.027523781645    12.000000000000
         C            0.991049404557     1.619971702368    -0.252999781645    12.000000000000
         C            2.270662404557     1.086547702368    -0.456807781645    12.000000000000
         C            2.470807404557    -0.321780297632    -0.461095781645    12.000000000000
         C            1.354244404557    -1.158004297632    -0.236519781645    12.000000000000
         C            0.069954404557    -0.627978297632    -0.023114781645    12.000000000000
         S            4.016986404557    -1.176301297632    -0.674693781645    31.972071174400
         C            5.332411404557     0.070892702368    -0.758988781645    12.000000000000
         O           -3.180729595443    -2.023343297632     0.589486218355    15.994914619570
         O           -1.649473595443     2.579574702368     0.196643218355    15.994914619570
         H            3.096113404557     1.783051702368    -0.590225781645     1.007825032230
         H            0.830583404557     2.698717702368    -0.255996781645     1.007825032230
         H           -0.889825595443    -2.492800297632     0.185767218355     1.007825032230
         H            1.490720404557    -2.240632297632    -0.221709781645     1.007825032230
         H            4.984533404557     0.963969702368    -1.283439781645     1.007825032230
         H            5.630438404557     0.338556702368     0.259550218355     1.007825032230
         H            6.188624404557    -0.355460297632    -1.290560781645     1.007825032230

  Running in c1 symmetry.

  Rotational constants: A =      0.03852  B =      0.00807  C =      0.00694 [cm^-1]
  Rotational constants: A =   1154.91655  B =    241.95173  C =    208.18533 [MHz]
  Nuclear repulsion = 1173.654427918235115

  Charge       = 0
  Multiplicity = 1
  Electrons    = 124
  Nalpha       = 62
  Nbeta        = 62

  ==> Algorithm <==

  SCF Algorithm Type is DF.
  DIIS enabled.
  MOM disabled.
  Fractional occupation disabled.
  Guess Type is SAD.
  Energy threshold   = 1.00e-08
  Density threshold  = 1.00e-08
  Integral threshold = 0.00e+00

  ==> Primary Basis <==

  Basis Set: 6-31+G*
    Blend: 6-31+G*
    Number of shells: 144
    Number of basis function: 322
    Number of Cartesian functions: 322
    Spherical Harmonics?: false
    Max angular momentum: 2

  ==> DFT Potential <==

   => Composite Functional: WB97X-D <= 

    wB97X-D Hyb-GGA Exchange-Correlation Functional

    J.-D. Chai and M. Head-Gordon, Phys. Chem. Chem. Phys. 10, 6615 (2008)

    Deriv               =              1
    GGA                 =           TRUE
    Meta                =          FALSE

    Exchange Hybrid     =           TRUE
    MP2 Hybrid          =          FALSE

   => Exchange-Correlation Functionals <=

    1.0000   wB97D range-separated functional

   => Exact (HF) Exchange <=

    0.7780            HF,LR [omega = 0.2000]
    0.2220               HF 

   => Molecular Quadrature <=

    Radial Scheme          =       TREUTLER
    Pruning Scheme         =           FLAT
    Nuclear Scheme         =       TREUTLER

    BS radius alpha        =              1
    Pruning alpha          =              1
    Radial Points          =             75
    Spherical Points       =            302
    Total Points           =         520856
    Total Blocks           =           3871
    Max Points             =            256
    Max Functions          =            288

   => WB97X-D: Empirical Dispersion <=

    Chai and Head-Gordon Dispersion Correction
    Chai, J.-D.; Head-Gordon, M. (2010), J. Chem. Phys., 132: 6615-6620

        s6 =       1.000000

   => Loading Basis Set <=

    Name: (6-31+G* AUX)
    Role: JKFIT
    Keyword: DF_BASIS_SCF
    atoms 1             entry N          line   252 file /fsx/users/francis/anaconda3/envs/poltype-dev/share/psi4/basis/heavy-aug-cc-pvdz-jkfit.gbs 
    atoms 2-3, 6-12, 14 entry C          line   194 file /fsx/users/francis/anaconda3/envs/poltype-dev/share/psi4/basis/heavy-aug-cc-pvdz-jkfit.gbs 
    atoms 4-5           entry F          line   368 file /fsx/users/francis/anaconda3/envs/poltype-dev/share/psi4/basis/heavy-aug-cc-pvdz-jkfit.gbs 
    atoms 13            entry S          line   730 file /fsx/users/francis/anaconda3/envs/poltype-dev/share/psi4/basis/heavy-aug-cc-pvdz-jkfit.gbs 
    atoms 15-16         entry O          line   310 file /fsx/users/francis/anaconda3/envs/poltype-dev/share/psi4/basis/heavy-aug-cc-pvdz-jkfit.gbs 
    atoms 17-23         entry H          line   116 file /fsx/users/francis/anaconda3/envs/poltype-dev/share/psi4/basis/heavy-aug-cc-pvdz-jkfit.gbs 

  ==> Pre-Iterations <==

   -------------------------------------------------------
    Irrep   Nso     Nmo     Nalpha   Nbeta   Ndocc  Nsocc
   -------------------------------------------------------
     A        322     322       0       0       0       0
   -------------------------------------------------------
    Total     322     322      62      62      62       0
   -------------------------------------------------------

  ==> Integral Setup <==

  ==> DiskDFJK: Density-Fitted J/K Matrices <==

    J tasked:                  Yes
    K tasked:                  Yes
    wK tasked:                 Yes
    Omega:               2.000E-01
    OpenMP threads:              8
    Integrals threads:           8
    Memory [MiB]:             8463
    Algorithm:                Core
    Integral Cache:           NONE
    Schwarz Cutoff:          1E-12
    Fitting Condition:       1E-10

   => Auxiliary Basis Set <=

  Basis Set: (6-31+G* AUX)
    Blend: HEAVY-AUG-CC-PVDZ-JKFIT
    Number of shells: 523
    Number of basis function: 1840
    Number of Cartesian functions: 1840
    Spherical Harmonics?: false
    Max angular momentum: 3

  Cached 100.0% of DFT collocation blocks in 2.911 [GiB].

  Minimum eigenvalue in the overlap matrix is 4.9573237957E-07.
  Using Symmetric Orthogonalization.

  SCF Guess: Superposition of Atomic Densities via on-the-fly atomic UHF.

  ==> Iterations <==

                           Total Energy        Delta E     RMS |[F,P]|

   @DF-RKS iter SAD: -1187.20511510728716   -1.18721e+03   0.00000e+00 
   @DF-RKS iter   1: -1187.53495190993544   -3.29837e-01   3.40327e-03 DIIS
   @DF-RKS iter   2: -1187.54522269091353   -1.02708e-02   3.70873e-03 DIIS
   @DF-RKS iter   3: -1188.08584812808999   -5.40625e-01   7.82501e-04 DIIS
   @DF-RKS iter   4: -1188.10995820934613   -2.41101e-02   2.68354e-04 DIIS
   @DF-RKS iter   5: -1188.11350598106014   -3.54777e-03   7.24594e-05 DIIS
   @DF-RKS iter   6: -1188.11390877384042   -4.02793e-04   2.37849e-05 DIIS
   @DF-RKS iter   7: -1188.11397000306124   -6.12292e-05   1.03142e-05 DIIS
   @DF-RKS iter   8: -1188.11398657031191   -1.65673e-05   3.93713e-06 DIIS
   @DF-RKS iter   9: -1188.11398942010874   -2.84980e-06   2.15590e-06 DIIS
   @DF-RKS iter  10: -1188.11398977205204   -3.51943e-07   7.24157e-07 DIIS
   @DF-RKS iter  11: -1188.11398982225955   -5.02075e-08   3.26743e-07 DIIS
   @DF-RKS iter  12: -1188.11398983267918   -1.04196e-08   1.49723e-07 DIIS
   @DF-RKS iter  13: -1188.11398983521804   -2.53885e-09   5.77503e-08 DIIS
   @DF-RKS iter  14: -1188.11398983551703   -2.98996e-10   2.45577e-08 DIIS
   @DF-RKS iter  15: -1188.11398983557342   -5.63887e-11   1.18450e-08 DIIS
   @DF-RKS iter  16: -1188.11398983558183   -8.41283e-12   6.33496e-09 DIIS
  Energy and wave function converged.


  ==> Post-Iterations <==

    Orbital Energies [Eh]
    ---------------------

    Doubly Occupied:                                                      

       1A    -89.085943     2A    -24.873348     3A    -24.872553  
       4A    -19.304762     5A    -19.293289     6A    -14.542242  
       7A    -10.510114     8A    -10.458059     9A    -10.435148  
      10A    -10.411010    11A    -10.394524    12A    -10.358886  
      13A    -10.355445    14A    -10.352730    15A    -10.352586  
      16A    -10.347577    17A     -8.103297    18A     -6.054068  
      19A     -6.049456    20A     -6.043454    21A     -1.381387  
      22A     -1.325010    23A     -1.188588    24A     -1.174448  
      25A     -1.091684    26A     -0.999226    27A     -0.940279  
      28A     -0.903894    29A     -0.885974    30A     -0.869383  
      31A     -0.798155    32A     -0.763414    33A     -0.750372  
      34A     -0.744233    35A     -0.693211    36A     -0.678429  
      37A     -0.665587    38A     -0.644108    39A     -0.628100  
      40A     -0.589478    41A     -0.584044    42A     -0.564441  
      43A     -0.561900    44A     -0.555898    45A     -0.553563  
      46A     -0.551438    47A     -0.548083    48A     -0.535545  
      49A     -0.522490    50A     -0.516078    51A     -0.506509  
      52A     -0.498875    53A     -0.490739    54A     -0.485794  
      55A     -0.474662    56A     -0.439058    57A     -0.429547  
      58A     -0.395692    59A     -0.394915    60A     -0.367356  
      61A     -0.339590    62A     -0.318014  

    Virtual:                                                              

      63A     -0.046383    64A      0.011427    65A      0.039243  
      66A      0.047535    67A      0.052022    68A      0.065043  
      69A      0.066679    70A      0.074944    71A      0.080857  
      72A      0.085764    73A      0.092484    74A      0.095353  
      75A      0.104881    76A      0.111256    77A      0.114925  
      78A      0.117174    79A      0.118803    80A      0.132046  
      81A      0.136917    82A      0.138430    83A      0.143875  
      84A      0.148487    85A      0.154607    86A      0.162637  
      87A      0.170387    88A      0.173018    89A      0.177589  
      90A      0.180401    91A      0.185243    92A      0.189470  
      93A      0.191777    94A      0.196928    95A      0.202234  
      96A      0.206477    97A      0.210501    98A      0.217597  
      99A      0.222069   100A      0.226857   101A      0.234653  
     102A      0.235847   103A      0.241358   104A      0.243567  
     105A      0.247552   106A      0.249321   107A      0.255678  
     108A      0.261097   109A      0.265352   110A      0.272037  
     111A      0.276607   112A      0.284173   113A      0.287209  
     114A      0.288671   115A      0.299658   116A      0.301068  
     117A      0.312026   118A      0.312359   119A      0.321132  
     120A      0.328243   121A      0.330352   122A      0.332425  
     123A      0.338769   124A      0.342529   125A      0.354624  
     126A      0.359317   127A      0.362244   128A      0.375603  
     129A      0.378991   130A      0.383156   131A      0.392285  
     132A      0.394545   133A      0.397442   134A      0.402423  
     135A      0.411454   136A      0.417221   137A      0.429120  
     138A      0.441411   139A      0.443909   140A      0.446700  
     141A      0.458172   142A      0.471913   143A      0.477021  
     144A      0.481724   145A      0.503315   146A      0.511763  
     147A      0.525213   148A      0.528773   149A      0.535094  
     150A      0.555346   151A      0.575600   152A      0.580134  
     153A      0.585253   154A      0.595837   155A      0.606500  
     156A      0.627277   157A      0.656209   158A      0.662866  
     159A      0.673619   160A      0.695925   161A      0.728412  
     162A      0.741499   163A      0.753833   164A      0.760433  
     165A      0.768942   166A      0.771910   167A      0.788366  
     168A      0.797187   169A      0.803714   170A      0.815437  
     171A      0.821827   172A      0.838218   173A      0.858015  
     174A      0.876998   175A      0.879427   176A      0.884205  
     177A      0.897627   178A      0.915332   179A      0.927845  
     180A      0.931402   181A      0.964482   182A      0.971333  
     183A      0.982254   184A      0.985781   185A      1.009964  
     186A      1.021265   187A      1.049477   188A      1.056958  
     189A      1.075038   190A      1.078737   191A      1.083487  
     192A      1.098046   193A      1.117390   194A      1.151781  
     195A      1.155795   196A      1.171970   197A      1.202193  
     198A      1.205668   199A      1.212432   200A      1.219297  
     201A      1.229490   202A      1.236622   203A      1.268649  
     204A      1.282252   205A      1.286528   206A      1.321683  
     207A      1.322992   208A      1.335308   209A      1.343168  
     210A      1.388109   211A      1.402109   212A      1.407648  
     213A      1.414928   214A      1.418949   215A      1.439194  
     216A      1.446697   217A      1.451172   218A      1.465403  
     219A      1.468009   220A      1.483677   221A      1.506679  
     222A      1.512734   223A      1.525575   224A      1.533026  
     225A      1.549953   226A      1.591403   227A      1.620385  
     228A      1.649865   229A      1.663863   230A      1.670670  
     231A      1.709888   232A      1.749847   233A      1.754136  
     234A      1.758066   235A      1.760288   236A      1.763358  
     237A      1.769083   238A      1.780689   239A      1.788596  
     240A      1.821072   241A      1.838645   242A      1.864290  
     243A      1.874175   244A      1.896749   245A      1.899167  
     246A      1.910183   247A      1.919417   248A      1.946425  
     249A      1.963258   250A      1.966823   251A      1.971832  
     252A      2.004572   253A      2.039087   254A      2.048568  
     255A      2.056338   256A      2.059203   257A      2.080846  
     258A      2.090918   259A      2.099318   260A      2.112506  
     261A      2.145908   262A      2.152703   263A      2.166897  
     264A      2.200352   265A      2.205781   266A      2.210691  
     267A      2.248085   268A      2.258373   269A      2.262359  
     270A      2.269430   271A      2.302473   272A      2.308459  
     273A      2.318028   274A      2.341767   275A      2.348580  
     276A      2.367515   277A      2.380762   278A      2.403263  
     279A      2.462317   280A      2.465525   281A      2.510697  
     282A      2.514486   283A      2.569178   284A      2.625708  
     285A      2.657136   286A      2.676751   287A      2.705224  
     288A      2.731655   289A      2.736709   290A      2.769998  
     291A      2.776773   292A      2.827839   293A      2.828634  
     294A      2.849830   295A      2.899062   296A      2.948794  
     297A      2.958813   298A      3.029796   299A      3.123445  
     300A      3.155264   301A      3.211285   302A      3.234049  
     303A      3.338430   304A      3.379372   305A      3.462899  
     306A      3.486993   307A      4.034887   308A      4.279556  
     309A      4.312592   310A      4.332341   311A      4.361044  
     312A      4.377651   313A      4.416450   314A      4.470073  
     315A      4.486090   316A      4.521334   317A      4.580670  
     318A      4.780008   319A      4.835353   320A      5.116137  
     321A      5.697429   322A      7.145450  

    Final Occupation by Irrep:
              A 
    DOCC [    62 ]

  @DF-RKS Final Energy: -1188.11398983558183

   => Energetics <=

    Nuclear Repulsion Energy =           1173.6544279182351147
    One-Electron Energy =               -3961.3801462886231093
    Two-Electron Energy =                1689.0644502808229390
    DFT Exchange-Correlation Energy =     -89.4392796569844108
    Empirical Dispersion Energy =          -0.0134420890324597
    VV10 Nonlocal Energy =                  0.0000000000000000
    Total Energy =                      -1188.1139898355816058

Computation Completed


Properties will be evaluated at   0.000000,   0.000000,   0.000000 [a0]

Properties computed using the SCF density matrix

  Nuclear Dipole Moment: [e a0]
     X:    26.4995      Y:    -0.5842      Z:    -4.1586

  Electronic Dipole Moment: [e a0]
     X:   -23.2232      Y:     0.2312      Z:     3.6610

  Dipole Moment: [e a0]
     X:     3.2763      Y:    -0.3530      Z:    -0.4976     Total:     3.3326

  Dipole Moment: [D]
     X:     8.3274      Y:    -0.8972      Z:    -1.2647     Total:     8.4706


*** tstop() called on cpu-spot-dy-c5n2xlarge-1 at Tue Jun 22 02:47:38 2021
Module time:
	user time   =     571.33 seconds =       9.52 minutes
	system time =      10.31 seconds =       0.17 minutes
	total time  =         77 seconds =       1.28 minutes
Total time:
	user time   =     571.33 seconds =       9.52 minutes
	system time =      10.31 seconds =       0.17 minutes
	total time  =         77 seconds =       1.28 minutes

*** tstart() called on cpu-spot-dy-c5n2xlarge-1
*** at Tue Jun 22 02:47:38 2021


         ------------------------------------------------------------
                                   SCF GRAD                          
                          Rob Parrish, Justin Turney,                
                       Andy Simmonett, and Alex Sokolov              
         ------------------------------------------------------------

  ==> Geometry <==

    Molecular point group: c1
    Full point group: C1

    Geometry (in Angstrom), charge = 0, multiplicity = 1:

       Center              X                  Y                   Z               Mass       
    ------------   -----------------  -----------------  -----------------  -----------------
         N           -1.029725595443    -1.491739297632     0.194181218355    14.003074004430
         C           -2.337379595443    -1.153888297632     0.423603218355    12.000000000000
         C           -2.652986595443     0.378094702368     0.459842218355    12.000000000000
         F           -3.624532595443     0.622768702368    -0.484672781645    18.998403162730
         F           -3.177120595443     0.662069702368     1.700822218355    18.998403162730
         C           -1.462924595443     1.366408702368     0.199845218355    12.000000000000
         C           -0.121748595443     0.780579702368    -0.027523781645    12.000000000000
         C            0.991049404557     1.619971702368    -0.252999781645    12.000000000000
         C            2.270662404557     1.086547702368    -0.456807781645    12.000000000000
         C            2.470807404557    -0.321780297632    -0.461095781645    12.000000000000
         C            1.354244404557    -1.158004297632    -0.236519781645    12.000000000000
         C            0.069954404557    -0.627978297632    -0.023114781645    12.000000000000
         S            4.016986404557    -1.176301297632    -0.674693781645    31.972071174400
         C            5.332411404557     0.070892702368    -0.758988781645    12.000000000000
         O           -3.180729595443    -2.023343297632     0.589486218355    15.994914619570
         O           -1.649473595443     2.579574702368     0.196643218355    15.994914619570
         H            3.096113404557     1.783051702368    -0.590225781645     1.007825032230
         H            0.830583404557     2.698717702368    -0.255996781645     1.007825032230
         H           -0.889825595443    -2.492800297632     0.185767218355     1.007825032230
         H            1.490720404557    -2.240632297632    -0.221709781645     1.007825032230
         H            4.984533404557     0.963969702368    -1.283439781645     1.007825032230
         H            5.630438404557     0.338556702368     0.259550218355     1.007825032230
         H            6.188624404557    -0.355460297632    -1.290560781645     1.007825032230

  Nuclear repulsion = 1173.654427918235115

  ==> Basis Set <==

  Basis Set: 6-31+G*
    Blend: 6-31+G*
    Number of shells: 144
    Number of basis function: 322
    Number of Cartesian functions: 322
    Spherical Harmonics?: false
    Max angular momentum: 2

  ==> DFJKGrad: Density-Fitted SCF Gradients <==

    Gradient:                    1
    J tasked:                  Yes
    K tasked:                  Yes
    wK tasked:                 Yes
    Omega:               2.000E-01
    OpenMP threads:              8
    Integrals threads:           8
    Memory [MiB]:            11444
    Schwarz Cutoff:          0E+00
    Fitting Condition:       1E-10

   => Auxiliary Basis Set <=

  Basis Set: (6-31+G* AUX)
    Blend: HEAVY-AUG-CC-PVDZ-JKFIT
    Number of shells: 523
    Number of basis function: 1840
    Number of Cartesian functions: 1840
    Spherical Harmonics?: false
    Max angular momentum: 3

  ==> DFT Potential <==

   => Composite Functional: WB97X-D <= 

    wB97X-D Hyb-GGA Exchange-Correlation Functional

    J.-D. Chai and M. Head-Gordon, Phys. Chem. Chem. Phys. 10, 6615 (2008)

    Deriv               =              1
    GGA                 =           TRUE
    Meta                =          FALSE

    Exchange Hybrid     =           TRUE
    MP2 Hybrid          =          FALSE

   => Exchange-Correlation Functionals <=

    1.0000   wB97D range-separated functional

   => Exact (HF) Exchange <=

    0.7780            HF,LR [omega = 0.2000]
    0.2220               HF 

   => Molecular Quadrature <=

    Radial Scheme          =       TREUTLER
    Pruning Scheme         =           FLAT
    Nuclear Scheme         =       TREUTLER

    BS radius alpha        =              1
    Pruning alpha          =              1
    Radial Points          =             75
    Spherical Points       =            302
    Total Points           =         520856
    Total Blocks           =           3871
    Max Points             =            256
    Max Functions          =            288


  -Total Gradient:
     Atom            X                  Y                   Z
    ------   -----------------  -----------------  -----------------
       1       -0.009550185373    -0.010836830628     0.001656814688
       2        0.007907345674     0.011463058854    -0.001772079159
       3        0.012732144447    -0.004030076101    -0.001304546902
       4       -0.012836372371     0.003305777728    -0.013298351888
       5       -0.006509596944     0.003662848302     0.016283667972
       6       -0.008745080246    -0.021740900787     0.001776466330
       7       -0.000100596487     0.007328800662     0.000690054452
       8       -0.003683264875     0.013761249706    -0.000381866448
       9        0.005890016618     0.003740567242    -0.001325285873
      10        0.008518851712    -0.010451698537    -0.006559804383
      11        0.004344931954    -0.002411502976     0.000293624361
      12       -0.002116186007    -0.005886439325     0.001428996346
      13        0.005848528008     0.003872016512     0.004252237902
      14        0.007043009679    -0.006840313333    -0.007728203116
      15       -0.008550153763    -0.021722438620     0.001938189870
      16        0.004828219215     0.029237053603    -0.001571127316
      17        0.000800477504     0.003524214361     0.000506723066
      18       -0.000840538141     0.003897299008    -0.000325973704
      19       -0.004094768330     0.001737868583     0.000667140284
      20        0.000311668139    -0.002520697631     0.000068363121
      21       -0.002922833762     0.000699296131     0.002321089208
      22       -0.001653417570    -0.001844182396     0.002366169804
      23        0.004044305461     0.001755001823    -0.000137857368


*** tstop() called on cpu-spot-dy-c5n2xlarge-1 at Tue Jun 22 02:48:01 2021
Module time:
	user time   =     147.43 seconds =       2.46 minutes
	system time =       3.59 seconds =       0.06 minutes
	total time  =         23 seconds =       0.38 minutes
Total time:
	user time   =     718.77 seconds =      11.98 minutes
	system time =      13.90 seconds =       0.23 minutes
	total time  =        100 seconds =       1.67 minutes

			-----------------------------------------
			 OPTKING 2.0: for geometry optimizations 
			  - R.A. King,  Bethel University        
			-----------------------------------------
	At level 1: Red. Int., RFO, no backsteps, dynamic trust

	Internal coordinates to be generated automatically.
	Detected frag 1 with atoms:  1 2 3 4 5 6 7 8 9 10 11 12 13 14 15 16 17 18 19 20
	 21 22 23
	---Fragment 1 Bond Connectivity---
	 1 : 2 12 19
	 2 : 1 3 15
	 3 : 2 4 5 6
	 4 : 3
	 5 : 3
	 6 : 3 7 16
	 7 : 6 8 12
	 8 : 7 9 18
	 9 : 8 10 17
	 10 : 9 11 13
	 11 : 10 12 20
	 12 : 1 7 11
	 13 : 10 14
	 14 : 13 21 22 23
	 15 : 2
	 16 : 6
	 17 : 9
	 18 : 8
	 19 : 1
	 20 : 11
	 21 : 14
	 22 : 14
	 23 : 14

	Assuming in current code that numbering for constraints corresponds to unified fragment.
	Frozen dihedral atom list: 
	    11    10    13    14
	     9    10    13    14
	    21    14    13    10
	---Fragment 1 Geometry and Gradient---
	 N          -1.9458993598       -2.8189787231        0.3669493214
	 C          -4.4170072866       -2.1805328619        0.8004940686
	 C          -5.0134180799        0.7144954370        0.8689758536
	 F          -6.8493739382        1.1768622870       -0.9158988178
	 F          -6.0038877929        1.2511304134        3.2140881808
	 C          -2.7645268276        2.5821382229        0.3776527302
	 C          -0.2300715015        1.4750818566       -0.0520124092
	 C           1.8728119514        3.0613028485       -0.4781002971
	 C           4.2909300680        2.0532775797       -0.8632415993
	 C           4.6691493034       -0.6080766351       -0.8713447449
	 C           2.5591510315       -2.1883109746       -0.4469576106
	 C           0.1321946659       -1.1867069953       -0.0436806068
	 S           7.5910041543       -2.2228872935       -1.2749864659
	 C          10.0767971429        0.1339677918       -1.4342809296
	 O          -6.0107078145       -3.8235646903        1.1139675074
	 O          -3.1170533466        4.8746897076        0.3716018271
	 H           5.8508063880        3.3694793850       -1.1153650795
	 H           1.5695751590        5.0998373474       -0.4837638063
	 H          -1.6815266748       -4.7107098480        0.3510491658
	 H           2.8170532942       -4.2341813904       -0.4189707666
	 H           9.4194029978        1.8216387307       -2.4253496858
	 H          10.6399865509        0.6397794454        0.4904788285
	 H          11.6948052179       -0.6717226110       -2.4388064256
	            -0.0095501854       -0.0108368306        0.0016568147
	             0.0079073457        0.0114630589       -0.0017720792
	             0.0127321444       -0.0040300761       -0.0013045469
	            -0.0128363724        0.0033057777       -0.0132983519
	            -0.0065095969        0.0036628483        0.0162836680
	            -0.0087450802       -0.0217409008        0.0017764663
	            -0.0001005965        0.0073288007        0.0006900545
	            -0.0036832649        0.0137612497       -0.0003818664
	             0.0058900166        0.0037405672       -0.0013252859
	             0.0085188517       -0.0104516985       -0.0065598044
	             0.0043449320       -0.0024115030        0.0002936244
	            -0.0021161860       -0.0058864393        0.0014289963
	             0.0058485280        0.0038720165        0.0042522379
	             0.0070430097       -0.0068403133       -0.0077282031
	            -0.0085501538       -0.0217224386        0.0019381899
	             0.0048282192        0.0292370536       -0.0015711273
	             0.0008004775        0.0035242144        0.0005067231
	            -0.0008405381        0.0038972990       -0.0003259737
	            -0.0040947683        0.0017378686        0.0006671403
	             0.0003116681       -0.0025206976        0.0000683631
	            -0.0029228338        0.0006992961        0.0023210892
	            -0.0016534176       -0.0018441824        0.0023661698
	             0.0040443055        0.0017550018       -0.0001378574

	Previous optimization step data not found.  Starting new optimization.

	---Fragment 1 Intrafragment Coordinates---
	 - Coordinate -           - BOHR/RAD -       - ANG/DEG -
	 R(1,2)           =         2.588812	       1.369940
	 R(1,12)          =         2.674211	       1.415131
	 R(1,19)          =         1.910181	       1.010824
	 R(2,3)           =         2.956617	       1.564574
	 R(2,15)          =         2.310346	       1.222583
	 R(3,4)           =         2.601979	       1.376908
	 R(3,5)           =         2.601645	       1.376731
	 R(3,6)           =         2.964287	       1.568633
	 R(6,7)           =         2.798866	       1.481096
	 R(6,16)          =         2.319505	       1.227429
	 R(7,8)           =         2.668289	       1.411998
	 R(7,12)          =         2.686341	       1.421550
	 R(8,9)           =         2.647970	       1.401245
	 R(8,18)          =         2.060972	       1.090620
	 R(9,10)          =         2.688107	       1.422485
	 R(9,17)          =         2.056494	       1.088250
	 R(10,11)         =         2.670082	       1.412947
	 R(10,13)         =         3.362704	       1.779466
	 R(11,12)         =         2.656306	       1.405656
	 R(11,20)         =         2.062252	       1.091297
	 R(13,14)         =         3.429185	       1.814646
	 R(14,21)         =         2.064611	       1.092545
	 R(14,22)         =         2.068267	       1.094480
	 R(14,23)         =         2.067887	       1.094279
	 B(1,2,3)         =         2.024067	     115.970488
	 B(1,2,15)        =         2.101087	     120.383443
	 B(1,12,7)        =         2.094948	     120.031689
	 B(1,12,11)       =         2.098039	     120.208759
	 B(2,1,12)        =         2.235647	     128.093128
	 B(2,1,19)        =         1.958149	     112.193669
	 B(2,3,4)         =         1.875952	     107.484158
	 B(2,3,5)         =         1.875118	     107.436342
	 B(2,3,6)         =         2.048844	     117.390113
	 B(3,2,15)        =         2.158026	     123.645771
	 B(3,6,7)         =         2.052430	     117.595569
	 B(3,6,16)        =         2.103489	     120.521039
	 B(4,3,5)         =         1.889196	     108.242970
	 B(4,3,6)         =         1.885627	     108.038484
	 B(5,3,6)         =         1.884175	     107.955302
	 B(6,7,8)         =         2.097895	     120.200516
	 B(6,7,12)        =         2.110127	     120.901347
	 B(7,6,16)        =         2.127236	     121.881639
	 B(7,8,9)         =         2.113690	     121.105514
	 B(7,8,18)        =         2.062901	     118.195547
	 B(7,12,11)       =         2.090198	     119.759522
	 B(8,7,12)        =         2.075164	     118.898137
	 B(8,9,10)        =         2.101124	     120.385534
	 B(8,9,17)        =         2.056533	     117.830685
	 B(9,8,18)        =         2.106557	     120.696852
	 B(9,10,11)       =         2.064935	     118.312058
	 B(9,10,13)       =         2.211862	     126.730343
	 B(10,9,17)       =         2.125345	     121.773283
	 B(10,11,12)      =         2.121138	     121.532228
	 B(10,11,20)      =         2.083414	     119.370806
	 B(10,13,14)      =         1.881144	     107.781608
	 B(11,10,13)      =         2.005909	     114.930100
	 B(12,1,19)       =         2.089381	     119.712700
	 B(12,11,20)      =         2.078614	     119.095832
	 B(13,14,21)      =         1.931890	     110.689136
	 B(13,14,22)      =         1.898894	     108.798584
	 B(13,14,23)      =         1.898607	     108.782186
	 B(21,14,22)      =         1.910826	     109.482242
	 B(21,14,23)      =         1.911808	     109.538533
	 B(22,14,23)      =         1.911651	     109.529561
	 D(1,2,3,4)       =         2.152157	     123.309518
	 D(1,2,3,5)       =        -2.101344	    -120.398168
	 D(1,2,3,6)       =         0.024111	       1.381437
	 D(1,12,7,6)      =         0.005281	       0.302552
	 D(1,12,7,8)      =        -3.136394	    -179.702117
	 D(1,12,11,10)    =         3.137494	     179.765174
	 D(1,12,11,20)    =        -0.010904	      -0.624754
	 D(2,1,12,7)      =        -0.007354	      -0.421330
	 D(2,1,12,11)     =         3.135348	     179.642182
	 D(2,3,6,7)       =        -0.025869	      -1.482162
	 D(2,3,6,16)      =         3.123974	     178.990514
	 D(3,2,1,12)      =        -0.008149	      -0.466902
	 D(3,2,1,19)      =         3.138014	     179.794972
	 D(3,6,7,8)       =        -3.130027	    -179.337327
	 D(3,6,7,12)      =         0.011483	       0.657943
	 D(4,3,2,15)      =        -0.992896	     -56.888733
	 D(4,3,6,7)       =        -2.148914	    -123.123695
	 D(4,3,6,16)      =         1.000929	      57.348982
	 D(5,3,2,15)      =         1.036788	      59.403581
	 D(5,3,6,7)       =         2.094897	     120.028771
	 D(5,3,6,16)      =        -1.038446	     -59.498553
	 D(6,3,2,15)      =        -3.120942	    -178.816815
	 D(6,7,8,9)       =         3.130253	     179.350260
	 D(6,7,8,18)      =        -0.002229	      -0.127717
	 D(6,7,12,11)     =        -3.137416	    -179.760673
	 D(7,8,9,10)      =         0.017207	       0.985886
	 D(7,8,9,17)      =        -3.104177	    -177.856223
	 D(7,12,1,19)     =         3.129366	     179.299491
	 D(7,12,11,10)    =        -0.002993	      -0.171487
	 D(7,12,11,20)    =         3.131794	     179.438585
	 D(8,7,6,16)      =         0.003197	       0.183148
	 D(8,7,12,11)     =         0.004096	       0.234658
	 D(8,9,10,11)     =        -0.015561	      -0.891581
	 D(8,9,10,13)     =        -3.122030	    -178.879155
	 D(9,8,7,12)      =        -0.011259	      -0.645105
	 D(9,10,11,12)    =         0.008593	       0.492341
	 D(9,10,11,20)    =        -3.126176	    -179.116683
	*D(9,10,13,14)    =         0.076180	       4.364805
	 D(10,9,8,18)     =        -3.133724	    -179.549165
	*D(10,13,14,21)   =        -0.630623	     -36.132033
	 D(10,13,14,22)   =         1.469725	      84.209055
	 D(10,13,14,23)   =        -2.732001	    -156.532112
	 D(11,10,9,17)    =         3.105010	     177.903951
	*D(11,10,13,14)   =        -3.031314	    -173.681480
	 D(11,12,1,19)    =        -0.011118	      -0.636997
	 D(12,1,2,15)     =         3.136783	     179.724413
	 D(12,7,6,16)     =        -3.138479	    -179.821581
	 D(12,7,8,18)     =         3.139444	     179.876918
	 D(12,11,10,13)   =         3.119145	     178.713819
	 D(13,10,9,17)    =        -0.001460	      -0.083623
	 D(13,10,11,20)   =        -0.015624	      -0.895205
	 D(15,2,1,19)     =        -0.000239	      -0.013713
	 D(17,9,8,18)     =         0.028078	       1.608726

	Current energy   :     -1188.1139898356

	Generating empirical Hessian (Schlegel '84) for each fragment.
	Taking RFO optimization step.
	Going to follow RFO solution 1.
	Using RFO vector 1.
	Norm of target step-size    0.20548
	Projected energy change by RFO approximation:        -0.0125939903

	Back-transformation to cartesian coordinates...
	Could not converge backtransformation.
	Using first guess instead.

	Back-transformation to cartesian coordinates to adjust frozen coordinates...

	--- Internal Coordinate Step in ANG or DEG, aJ/ANG or AJ/DEG ---
	 ---------------------------------------------------------------------------
	   Coordinate                Previous        Force       Change         New 
	   ----------                --------       ------       ------       ------
	    1 R(1,2)          =      1.369940    -0.007237     0.002616     1.372556
	    2 R(1,12)         =      1.415131    -0.130997     0.243856     1.658987
	    3 R(1,19)         =      1.010824     0.019116     0.283849     1.294674
	    4 R(2,3)          =      1.564574    -0.095440     0.396120     1.960695
	    5 R(2,15)         =      1.222583    -0.178072     0.247429     1.470012
	    6 R(3,4)          =      1.376908    -0.154777     0.264243     1.641151
	    7 R(3,5)          =      1.376731    -0.147763     0.281979     1.658710
	    8 R(3,6)          =      1.568633    -0.091765     0.280735     1.849368
	    9 R(6,7)          =      1.481096    -0.079600     0.011041     1.492137
	   10 R(6,16)         =      1.227429    -0.232289     0.313822     1.541251
	   11 R(7,8)          =      1.411998    -0.108130     0.235610     1.647608
	   12 R(7,12)         =      1.421550    -0.117949     0.378873     1.800423
	   13 R(8,9)          =      1.401245    -0.140651     0.000568     1.401814
	   14 R(8,18)         =      1.090620    -0.032910     0.298912     1.389532
	   15 R(9,10)         =      1.422485    -0.145344     0.375990     1.798476
	   16 R(9,17)         =      1.088250    -0.022947     0.204660     1.292910
	   17 R(10,11)        =      1.412947    -0.108371     0.240133     1.653080
	   18 R(10,13)        =      1.779466    -0.095820     0.032503     1.811970
	   19 R(11,12)        =      1.405656    -0.139711     0.002590     1.408246
	   20 R(11,20)        =      1.091297    -0.020811     0.305649     1.396945
	   21 R(13,14)        =      1.814646    -0.003917     0.442632     2.257279
	   22 R(14,21)        =      1.092545    -0.003192     0.285864     1.378409
	   23 R(14,22)        =      1.094480    -0.010677     0.337059     1.431539
	   24 R(14,23)        =      1.094279    -0.020807     0.064479     1.158758
	   25 B(1,2,3)        =    115.970488    -0.000055    -0.746297   115.224192
	   26 B(1,2,15)       =    120.383443     0.000818    -6.467190   113.916253
	   27 B(1,12,7)       =    120.031689     0.000208     9.299466   129.331155
	   28 B(1,12,11)      =    120.208759    -0.000388   -11.710965   108.497794
	   29 B(2,1,12)       =    128.093128    -0.000193    -9.516723   118.576405
	   30 B(2,1,19)       =    112.193669     0.000381     1.261245   113.454914
	   31 B(2,3,4)        =    107.484158    -0.000020    -2.699295   104.784862
	   32 B(2,3,5)        =    107.436342    -0.000021    -2.970083   104.466259
	   33 B(2,3,6)        =    117.390113     0.000063     9.656322   127.046434
	   34 B(3,2,15)       =    123.645771    -0.000763     7.213783   130.859554
	   35 B(3,6,7)        =    117.595569    -0.000138   -10.917364   106.678205
	   36 B(3,6,16)       =    120.521039    -0.000753     7.140298   127.661337
	   37 B(4,3,5)        =    108.242970    -0.000022    12.095832   120.338802
	   38 B(4,3,6)        =    108.038484     0.000006    -7.478267   100.560217
	   39 B(5,3,6)        =    107.955302    -0.000011    -6.615328   101.339974
	   40 B(6,7,8)        =    120.200516    -0.000044   -10.909911   109.290605
	   41 B(6,7,12)       =    120.901347     0.000115     2.224539   123.125886
	   42 B(7,6,16)       =    121.881639     0.000891     3.778766   125.660406
	   43 B(7,8,9)        =    121.105514     0.000073   -10.348253   110.757262
	   44 B(7,8,18)       =    118.195547    -0.000020     8.891010   127.086556
	   45 B(7,12,11)      =    119.759522     0.000180     2.411505   122.171026
	   46 B(8,7,12)       =    118.898137    -0.000071     8.682951   127.581088
	   47 B(8,9,10)       =    120.385534    -0.000226     1.057733   121.443267
	   48 B(8,9,17)       =    117.830685     0.000290    -9.433097   108.397588
	   49 B(9,8,18)       =    120.696852    -0.000053     1.459330   122.156182
	   50 B(9,10,11)      =    118.312058     0.000442    10.035252   128.347310
	   51 B(9,10,13)      =    126.730343    -0.000513     1.169394   127.899737
	   52 B(10,9,17)      =    121.773283    -0.000064     8.380652   130.153935
	   53 B(10,11,12)     =    121.532228    -0.000399   -11.847493   109.684736
	   54 B(10,11,20)     =    119.370806     0.000196     9.288478   128.659284
	   55 B(10,13,14)     =    107.781608    -0.001520   -15.434570    92.347038
	   56 B(11,10,13)     =    114.930100     0.000071   -11.209709   103.720390
	   57 B(12,1,19)      =    119.712700    -0.000187     8.255575   127.968275
	   58 B(12,11,20)     =    119.095832     0.000204     2.559779   121.655610
	   59 B(13,14,21)     =    110.689136     0.000240     9.176474   119.865610
	   60 B(13,14,22)     =    108.798584     0.000410     1.140466   109.939049
	   61 B(13,14,23)     =    108.782186    -0.000515   -12.013597    96.768589
	   62 B(21,14,22)     =    109.482242    -0.000202    -2.266979   107.215262
	   63 B(21,14,23)     =    109.538533     0.000041    -3.366080   106.172452
	   64 B(22,14,23)     =    109.529561     0.000026     7.592582   117.122143
	   65 D(1,2,3,4)      =    123.309518     0.000006    -5.865405   117.444114
	   66 D(1,2,3,5)      =   -120.398168    -0.000004     5.258804  -115.139364
	   67 D(1,2,3,6)      =      1.381437    -0.000002     0.169118     1.550555
	   68 D(1,12,7,6)     =      0.302552    -0.000002     0.112804     0.415356
	   69 D(1,12,7,8)     =   -179.702117    -0.000005    -0.510656  -180.212772
	   70 D(1,12,11,10)   =    179.765174    -0.000003    -0.401372   179.363802
	   71 D(1,12,11,20)   =     -0.624754     0.000003     0.191879    -0.432875
	   72 D(2,1,12,7)     =     -0.421330     0.000002    -0.007968    -0.429298
	   73 D(2,1,12,11)    =    179.642182    -0.000001    -0.128535   179.513647
	   74 D(2,3,6,7)      =     -1.482162     0.000002     0.019155    -1.463007
	   75 D(2,3,6,16)     =    178.990514    -0.000000    -0.373266   178.617248
	   76 D(3,2,1,12)     =     -0.466902    -0.000000    -0.001887    -0.468789
	   77 D(3,2,1,19)     =    179.794972     0.000000    -0.050427   179.744546
	   78 D(3,6,7,8)      =   -179.337327     0.000003     0.385408  -178.951919
	   79 D(3,6,7,12)     =      0.657943    -0.000000    -0.137256     0.520687
	   80 D(4,3,2,15)     =    -56.888733     0.000007    -5.678830   -62.567563
	   81 D(4,3,6,7)      =   -123.123695    -0.000003     3.888564  -119.235130
	   82 D(4,3,6,16)     =     57.348982    -0.000006     3.496143    60.845125
	   83 D(5,3,2,15)     =     59.403581    -0.000004     5.445378    64.848959
	   84 D(5,3,6,7)      =    120.028771     0.000004    -3.418809   116.609962
	   85 D(5,3,6,16)     =    -59.498553     0.000001    -3.811230   -63.309783
	   86 D(6,3,2,15)     =   -178.816815    -0.000001     0.355693  -178.461122
	   87 D(6,7,8,9)      =    179.350260     0.000004     0.406120   179.756380
	   88 D(6,7,8,18)     =     -0.127717     0.000000    -0.117049    -0.244766
	   89 D(6,7,12,11)    =   -179.760673     0.000001     0.239950  -179.520723
	   90 D(7,8,9,10)     =      0.985886    -0.000004    -0.604438     0.381448
	   91 D(7,8,9,17)     =   -177.856223    -0.000009    -1.011535  -178.867757
	   92 D(7,12,1,19)    =    179.299491     0.000002     0.022962   179.322452
	   93 D(7,12,11,10)   =     -0.171487    -0.000006    -0.516847    -0.688334
	   94 D(7,12,11,20)   =    179.438585     0.000000     0.076403   179.514989
	   95 D(8,7,6,16)     =      0.183148     0.000004     0.786737     0.969885
	   96 D(8,7,12,11)    =      0.234658    -0.000002    -0.383509    -0.148851
	   97 D(8,9,10,11)    =     -0.891581    -0.000004    -0.544512    -1.436093
	   98 D(8,9,10,13)    =   -178.879155    -0.000003    -0.136629  -179.015784
	   99 D(9,8,7,12)     =     -0.645105     0.000007     0.958813     0.313709
	  100 D(9,10,11,12)   =      0.492341     0.000009     0.984144     1.476485
	  101 D(9,10,11,20)   =   -179.116683     0.000003     0.371528  -178.745154
	  102 *D(9,10,13,14)  =      4.364805    -0.000000     0.000000     4.364805
	  103 D(10,9,8,18)    =   -179.549165    -0.000001    -0.068307  -179.617472
	  104 *D(10,13,14,21) =    -36.132033     0.000000     0.000000   -36.132033
	  105 D(10,13,14,22)  =     84.209055     0.000037     4.503998    88.713053
	  106 D(10,13,14,23)  =   -156.532112     0.000030     7.346523  -149.185590
	  107 D(11,10,9,17)   =    177.903951     0.000002    -0.272163   177.631788
	  108 *D(11,10,13,14) =   -173.681480     0.000000    -0.000000  -173.681480
	  109 D(11,12,1,19)   =     -0.636997    -0.000001    -0.097605    -0.734602
	  110 D(12,1,2,15)    =    179.724413     0.000000    -0.183541   179.540872
	  111 D(12,7,6,16)    =   -179.821581     0.000000     0.264073  -179.557508
	  112 D(12,7,8,18)    =    179.876918     0.000004     0.435644   180.312563
	  113 D(12,11,10,13)  =    178.713819     0.000005     0.796932   179.510751
	  114 D(13,10,9,17)   =     -0.083623     0.000003     0.135721     0.052097
	  115 D(13,10,11,20)  =     -0.895205    -0.000001     0.184317    -0.710888
	  116 D(15,2,1,19)    =     -0.013713     0.000000    -0.232081    -0.245794
	  117 D(17,9,8,18)    =      1.608726    -0.000006    -0.475403     1.133322
	 ---------------------------------------------------------------------------
	Successfully symmetrized geometry.

  ==> Convergence Check <==

  Measures of convergence in internal coordinates in au.
  Criteria marked as inactive (o), active & met (*), and active & unmet ( ).
  --------------------------------------------------------------------------------------------- ~
   Step     Total Energy     Delta E     MAX Force     RMS Force      MAX Disp      RMS Disp    ~
  --------------------------------------------------------------------------------------------- ~
    Convergence Criteria             o    2.50e-03 *    1.70e-03 *    1.00e-02 *    6.70e-03 *  ~
  --------------------------------------------------------------------------------------------- ~
      1   -1188.11398984   -1.19e+03 o    2.82e-02      6.76e-03      8.36e-01      2.44e-01    ~
  ---------------------------------------------------------------------------------------------

	Writing optimization data to binary file.
	Structure for next step:
	Cartesian Geometry (in Angstrom)
	    N    -1.2224482313  -1.6488869506  -1.2139761101
	    C    -2.5080580524  -1.3302350977  -0.8540043065
	    C    -2.6862919451   0.2423568354   0.3033681545
	    F    -3.5643752720   1.3131837121  -0.5773572640
	    F    -3.2833680214  -0.3583155703   1.7295564597
	    C    -1.3262648608   1.3381880812   0.9113515605
	    C    -0.0514798797   0.7739211256   0.3793765651
	    C     1.2117907218   1.6898926083   0.9082951434
	    C     2.4278808026   1.1826117350   0.4298889544
	    C     2.4873562609  -0.2736523945  -0.6238055585
	    C     1.2320781904  -1.2149780521  -1.1442441916
	    C     0.0162853880  -0.6938406468  -0.6611072254
	    S     3.9507541241  -1.0878170018  -1.3157854717
	    C     5.3550484783   0.2914985493  -0.2109087222
	    O    -3.5241361064  -2.2364547218  -1.4083378593
	    O    -1.4529248591   2.5934739596   1.7966027363
	    H     3.3862266267   1.9184209962   0.8900776575
	    H     1.1480071244   2.8182683402   1.7166872495
	    H    -1.1440561945  -2.6947284927  -1.9730874829
	    H     1.2729396621  -2.3604644590  -1.9427723058
	    H     5.0168503192   1.6157277627  -0.0318826221
	    H     5.6531726715  -0.2480505522   1.0811096465
	    H     6.2056952847   0.2791563808  -0.9976539742
			--------------------------
			 OPTKING Finished Execution 
			--------------------------

    Structure for next step:
    Molecular point group: c1
    Full point group: C1

    Geometry (in Angstrom), charge = 0, multiplicity = 1:

    N           -1.202282633766    -1.613457645202    -1.053590279590
    C           -2.487892459829    -1.294805790994    -0.693618474561
    C           -2.666126353305     0.277786148243     0.463753990959
    F           -3.544209683665     1.348613029160    -0.416971431046
    F           -3.263202431893    -0.322886259863     1.889942301760
    C           -1.306099263643     1.373617398396     1.071737399361
    C           -0.031314277488     0.809350440489     0.539762401817
    C            1.231956328938     1.725321926845     1.068680982173
    C            2.448046414492     1.218041051533     0.590274791306
    C            2.507521873012    -0.238223083659    -0.463419725699
    C            1.252243797576    -1.179548745016    -0.983858360851
    C            0.036450990491    -0.658411337598    -0.500721392737
    S            3.970919742040    -1.052387694154    -1.155399641621
    C            5.375214101697     0.326927862350    -0.050522887730
    O           -3.503970517889    -2.201025418657    -1.247952029588
    O           -1.432759262410     2.628903281666     1.956988578576
    H            3.406392242442     1.953850315604     1.050463496293
    H            1.168172731249     2.853697663170     1.877073091546
    H           -1.123890596657    -2.659299191378    -1.812701655418
    H            1.293105269439    -2.325035156372    -1.782386478219
    H            5.037015941270     1.651157080944     0.128503212981
    H            5.673338296057    -0.212621241309     1.241495486037
    H            6.225860911434     0.314585693766    -0.837268142853

gradient() will perform analytic gradient computation.

*** tstart() called on cpu-spot-dy-c5n2xlarge-1
*** at Tue Jun 22 02:48:02 2021

   => Loading Basis Set <=

    Name: 6-31+G*
    Role: ORBITAL
    Keyword: BASIS
    atoms 1             entry N          line   138 file /fsx/users/francis/anaconda3/envs/poltype-dev/share/psi4/basis/6-31pgs.gbs 
    atoms 2-3, 6-12, 14 entry C          line   119 file /fsx/users/francis/anaconda3/envs/poltype-dev/share/psi4/basis/6-31pgs.gbs 
    atoms 4-5           entry F          line   176 file /fsx/users/francis/anaconda3/envs/poltype-dev/share/psi4/basis/6-31pgs.gbs 
    atoms 13            entry S          line   344 file /fsx/users/francis/anaconda3/envs/poltype-dev/share/psi4/basis/6-31pgs.gbs 
    atoms 15-16         entry O          line   157 file /fsx/users/francis/anaconda3/envs/poltype-dev/share/psi4/basis/6-31pgs.gbs 
    atoms 17-23         entry H          line    46 file /fsx/users/francis/anaconda3/envs/poltype-dev/share/psi4/basis/6-31pgs.gbs 


         ---------------------------------------------------------
                                   SCF
               by Justin Turney, Rob Parrish, Andy Simmonett
                          and Daniel G. A. Smith
                              RKS Reference
                        8 Threads,  15258 MiB Core
         ---------------------------------------------------------

  ==> Geometry <==

    Molecular point group: c1
    Full point group: C1

    Geometry (in Angstrom), charge = 0, multiplicity = 1:

       Center              X                  Y                   Z               Mass       
    ------------   -----------------  -----------------  -----------------  -----------------
         N           -1.202282633766    -1.613457645202    -1.053590279590    14.003074004430
         C           -2.487892459829    -1.294805790994    -0.693618474561    12.000000000000
         C           -2.666126353305     0.277786148243     0.463753990959    12.000000000000
         F           -3.544209683665     1.348613029160    -0.416971431046    18.998403162730
         F           -3.263202431893    -0.322886259863     1.889942301760    18.998403162730
         C           -1.306099263643     1.373617398396     1.071737399361    12.000000000000
         C           -0.031314277488     0.809350440489     0.539762401817    12.000000000000
         C            1.231956328938     1.725321926845     1.068680982173    12.000000000000
         C            2.448046414492     1.218041051533     0.590274791306    12.000000000000
         C            2.507521873012    -0.238223083659    -0.463419725699    12.000000000000
         C            1.252243797576    -1.179548745016    -0.983858360851    12.000000000000
         C            0.036450990491    -0.658411337598    -0.500721392737    12.000000000000
         S            3.970919742040    -1.052387694154    -1.155399641621    31.972071174400
         C            5.375214101697     0.326927862350    -0.050522887730    12.000000000000
         O           -3.503970517889    -2.201025418657    -1.247952029588    15.994914619570
         O           -1.432759262410     2.628903281666     1.956988578576    15.994914619570
         H            3.406392242442     1.953850315604     1.050463496293     1.007825032230
         H            1.168172731249     2.853697663170     1.877073091546     1.007825032230
         H           -1.123890596657    -2.659299191378    -1.812701655418     1.007825032230
         H            1.293105269439    -2.325035156372    -1.782386478219     1.007825032230
         H            5.037015941270     1.651157080944     0.128503212981     1.007825032230
         H            5.673338296057    -0.212621241309     1.241495486037     1.007825032230
         H            6.225860911434     0.314585693766    -0.837268142853     1.007825032230

  Running in c1 symmetry.

  Rotational constants: A =      0.02346  B =      0.00794  C =      0.00629 [cm^-1]
  Rotational constants: A =    703.24579  B =    237.93059  C =    188.55560 [MHz]
  Nuclear repulsion = 1052.390456702041547

  Charge       = 0
  Multiplicity = 1
  Electrons    = 124
  Nalpha       = 62
  Nbeta        = 62

  ==> Algorithm <==

  SCF Algorithm Type is DF.
  DIIS enabled.
  MOM disabled.
  Fractional occupation disabled.
  Guess Type is READ.
  Energy threshold   = 1.00e-08
  Density threshold  = 1.00e-08
  Integral threshold = 0.00e+00

  ==> Primary Basis <==

  Basis Set: 6-31+G*
    Blend: 6-31+G*
    Number of shells: 144
    Number of basis function: 322
    Number of Cartesian functions: 322
    Spherical Harmonics?: false
    Max angular momentum: 2

  ==> DFT Potential <==

   => Composite Functional: WB97X-D <= 

    wB97X-D Hyb-GGA Exchange-Correlation Functional

    J.-D. Chai and M. Head-Gordon, Phys. Chem. Chem. Phys. 10, 6615 (2008)

    Deriv               =              1
    GGA                 =           TRUE
    Meta                =          FALSE

    Exchange Hybrid     =           TRUE
    MP2 Hybrid          =          FALSE

   => Exchange-Correlation Functionals <=

    1.0000   wB97D range-separated functional

   => Exact (HF) Exchange <=

    0.7780            HF,LR [omega = 0.2000]
    0.2220               HF 

   => Molecular Quadrature <=

    Radial Scheme          =       TREUTLER
    Pruning Scheme         =           FLAT
    Nuclear Scheme         =       TREUTLER

    BS radius alpha        =              1
    Pruning alpha          =              1
    Radial Points          =             75
    Spherical Points       =            302
    Total Points           =         520866
    Total Blocks           =           3887
    Max Points             =            256
    Max Functions          =            272

   => WB97X-D: Empirical Dispersion <=

    Chai and Head-Gordon Dispersion Correction
    Chai, J.-D.; Head-Gordon, M. (2010), J. Chem. Phys., 132: 6615-6620

        s6 =       1.000000

   => Loading Basis Set <=

    Name: (6-31+G* AUX)
    Role: JKFIT
    Keyword: DF_BASIS_SCF
    atoms 1             entry N          line   252 file /fsx/users/francis/anaconda3/envs/poltype-dev/share/psi4/basis/heavy-aug-cc-pvdz-jkfit.gbs 
    atoms 2-3, 6-12, 14 entry C          line   194 file /fsx/users/francis/anaconda3/envs/poltype-dev/share/psi4/basis/heavy-aug-cc-pvdz-jkfit.gbs 
    atoms 4-5           entry F          line   368 file /fsx/users/francis/anaconda3/envs/poltype-dev/share/psi4/basis/heavy-aug-cc-pvdz-jkfit.gbs 
    atoms 13            entry S          line   730 file /fsx/users/francis/anaconda3/envs/poltype-dev/share/psi4/basis/heavy-aug-cc-pvdz-jkfit.gbs 
    atoms 15-16         entry O          line   310 file /fsx/users/francis/anaconda3/envs/poltype-dev/share/psi4/basis/heavy-aug-cc-pvdz-jkfit.gbs 
    atoms 17-23         entry H          line   116 file /fsx/users/francis/anaconda3/envs/poltype-dev/share/psi4/basis/heavy-aug-cc-pvdz-jkfit.gbs 

   => Loading Basis Set <=

    Name: 6-31+G*
    Role: ORBITAL
    Keyword: BASIS
    atoms 1             entry N          line   138 file /fsx/users/francis/anaconda3/envs/poltype-dev/share/psi4/basis/6-31pgs.gbs 
    atoms 2-3, 6-12, 14 entry C          line   119 file /fsx/users/francis/anaconda3/envs/poltype-dev/share/psi4/basis/6-31pgs.gbs 
    atoms 4-5           entry F          line   176 file /fsx/users/francis/anaconda3/envs/poltype-dev/share/psi4/basis/6-31pgs.gbs 
    atoms 13            entry S          line   344 file /fsx/users/francis/anaconda3/envs/poltype-dev/share/psi4/basis/6-31pgs.gbs 
    atoms 15-16         entry O          line   157 file /fsx/users/francis/anaconda3/envs/poltype-dev/share/psi4/basis/6-31pgs.gbs 
    atoms 17-23         entry H          line    46 file /fsx/users/francis/anaconda3/envs/poltype-dev/share/psi4/basis/6-31pgs.gbs 

  Reading orbitals from file 180, no projection.

  ==> Pre-Iterations <==

   -------------------------------------------------------
    Irrep   Nso     Nmo     Nalpha   Nbeta   Ndocc  Nsocc
   -------------------------------------------------------
     A        322     322       0       0       0       0
   -------------------------------------------------------
    Total     322     322      62      62      62       0
   -------------------------------------------------------

  ==> Integral Setup <==

  ==> DiskDFJK: Density-Fitted J/K Matrices <==

    J tasked:                  Yes
    K tasked:                  Yes
    wK tasked:                 Yes
    Omega:               2.000E-01
    OpenMP threads:              8
    Integrals threads:           8
    Memory [MiB]:             8643
    Algorithm:                Core
    Integral Cache:           NONE
    Schwarz Cutoff:          1E-12
    Fitting Condition:       1E-10

   => Auxiliary Basis Set <=

  Basis Set: (6-31+G* AUX)
    Blend: HEAVY-AUG-CC-PVDZ-JKFIT
    Number of shells: 523
    Number of basis function: 1840
    Number of Cartesian functions: 1840
    Spherical Harmonics?: false
    Max angular momentum: 3

  Cached 100.0% of DFT collocation blocks in 2.735 [GiB].

  Minimum eigenvalue in the overlap matrix is 1.3973788692E-06.
  Using Symmetric Orthogonalization.

  SCF Guess: Orbitals guess was supplied from a previous computation.

  ==> Iterations <==

                           Total Energy        Delta E     RMS |[F,P]|

   @DF-RKS iter   0: -1186.49811928061354   -1.18650e+03   2.68075e-02 
   @DF-RKS iter   1: -1177.85593349633609    8.64219e+00   9.86900e-03 DIIS
   @DF-RKS iter   2: -1036.43027930392213    1.41426e+02   3.95222e-02 DIIS
   @DF-RKS iter   3: -1154.93636107319503   -1.18506e+02   1.69234e-02 DIIS
   @DF-RKS iter   4: -1154.59697913066771    3.39382e-01   1.70063e-02 DIIS
   @DF-RKS iter   5: -1186.33965004271340   -3.17427e+01   3.63726e-03 DIIS
   @DF-RKS iter   6: -1187.06482278647445   -7.25173e-01   1.49198e-03 DIIS
   @DF-RKS iter   7: -1187.15613861112979   -9.13158e-02   1.15615e-03 DIIS
   @DF-RKS iter   8: -1187.21978054786837   -6.36419e-02   3.81967e-04 DIIS
   @DF-RKS iter   9: -1187.22585984234456   -6.07929e-03   1.71737e-04 DIIS
   @DF-RKS iter  10: -1187.22784850803851   -1.98867e-03   6.69207e-05 DIIS
   @DF-RKS iter  11: -1187.22819594688303   -3.47439e-04   4.01287e-05 DIIS
   @DF-RKS iter  12: -1187.22830866937989   -1.12722e-04   2.04306e-05 DIIS
   @DF-RKS iter  13: -1187.22833065962777   -2.19902e-05   8.42237e-06 DIIS
   @DF-RKS iter  14: -1187.22833615297532   -5.49335e-06   2.45025e-06 DIIS
   @DF-RKS iter  15: -1187.22833722791211   -1.07494e-06   1.18981e-06 DIIS
   @DF-RKS iter  16: -1187.22833742135208   -1.93440e-07   6.30246e-07 DIIS
   @DF-RKS iter  17: -1187.22833749975462   -7.84025e-08   2.47206e-07 DIIS
   @DF-RKS iter  18: -1187.22833751262419   -1.28696e-08   1.51342e-07 DIIS
   @DF-RKS iter  19: -1187.22833751679809   -4.17390e-09   5.36563e-08 DIIS
   @DF-RKS iter  20: -1187.22833751785038   -1.05229e-09   3.47761e-08 DIIS
   @DF-RKS iter  21: -1187.22833751801227   -1.61890e-10   2.50175e-08 DIIS
   @DF-RKS iter  22: -1187.22833751809026   -7.79892e-11   1.41331e-08 DIIS
   @DF-RKS iter  23: -1187.22833751811459   -2.43290e-11   6.23595e-09 DIIS
  Energy and wave function converged.


  ==> Post-Iterations <==

    Orbital Energies [Eh]
    ---------------------

    Doubly Occupied:                                                      

       1A    -89.145642     2A    -24.838676     3A    -24.835606  
       4A    -19.292540     5A    -19.287212     6A    -14.592032  
       7A    -10.558701     8A    -10.499369     9A    -10.496090  
      10A    -10.485050    11A    -10.469332    12A    -10.463164  
      13A    -10.437888    14A    -10.430261    15A    -10.427862  
      16A    -10.426134    17A     -8.157877    18A     -6.107636  
      19A     -6.105106    20A     -6.098871    21A     -1.255824  
      22A     -1.241531    23A     -1.093428    24A     -1.018848  
      25A     -1.013837    26A     -0.963067    27A     -0.915930  
      28A     -0.899420    29A     -0.852390    30A     -0.804208  
      31A     -0.775039    32A     -0.734203    33A     -0.704777  
      34A     -0.693191    35A     -0.644399    36A     -0.614449  
      37A     -0.585072    38A     -0.570033    39A     -0.568790  
      40A     -0.566553    41A     -0.546228    42A     -0.532706  
      43A     -0.520579    44A     -0.517605    45A     -0.513594  
      46A     -0.505624    47A     -0.489385    48A     -0.487292  
      49A     -0.477904    50A     -0.475748    51A     -0.474966  
      52A     -0.471378    53A     -0.456725    54A     -0.443615  
      55A     -0.436493    56A     -0.426898    57A     -0.410511  
      58A     -0.392165    59A     -0.366200    60A     -0.355899  
      61A     -0.340821    62A     -0.311613  

    Virtual:                                                              

      63A     -0.102424    64A     -0.073411    65A     -0.035571  
      66A     -0.021570    67A     -0.012759    68A     -0.008118  
      69A      0.003266    70A      0.011757    71A      0.015982  
      72A      0.021813    73A      0.026953    74A      0.035277  
      75A      0.054997    76A      0.061726    77A      0.069840  
      78A      0.073134    79A      0.082888    80A      0.089604  
      81A      0.092088    82A      0.095690    83A      0.102831  
      84A      0.112256    85A      0.113721    86A      0.116204  
      87A      0.122200    88A      0.125086    89A      0.126886  
      90A      0.131414    91A      0.135940    92A      0.137191  
      93A      0.140032    94A      0.146341    95A      0.153068  
      96A      0.155771    97A      0.165145    98A      0.170625  
      99A      0.172859   100A      0.176446   101A      0.182002  
     102A      0.187890   103A      0.193934   104A      0.199331  
     105A      0.204157   106A      0.208386   107A      0.208992  
     108A      0.214775   109A      0.220740   110A      0.224388  
     111A      0.236989   112A      0.242597   113A      0.247740  
     114A      0.251157   115A      0.258618   116A      0.260843  
     117A      0.269169   118A      0.276437   119A      0.284040  
     120A      0.284507   121A      0.292577   122A      0.296618  
     123A      0.300774   124A      0.305508   125A      0.316596  
     126A      0.320573   127A      0.336978   128A      0.337886  
     129A      0.343102   130A      0.354002   131A      0.363419  
     132A      0.368045   133A      0.370847   134A      0.382966  
     135A      0.384892   136A      0.390832   137A      0.393858  
     138A      0.404486   139A      0.407037   140A      0.408121  
     141A      0.412377   142A      0.422913   143A      0.432033  
     144A      0.444388   145A      0.453166   146A      0.456985  
     147A      0.460091   148A      0.486083   149A      0.486692  
     150A      0.496449   151A      0.517268   152A      0.521530  
     153A      0.532609   154A      0.547999   155A      0.553780  
     156A      0.563815   157A      0.586592   158A      0.627914  
     159A      0.654054   160A      0.659425   161A      0.681713  
     162A      0.688799   163A      0.717616   164A      0.725297  
     165A      0.734095   166A      0.738782   167A      0.746767  
     168A      0.756579   169A      0.768130   170A      0.780778  
     171A      0.788497   172A      0.798721   173A      0.800310  
     174A      0.809468   175A      0.837399   176A      0.845343  
     177A      0.857719   178A      0.868326   179A      0.877256  
     180A      0.882223   181A      0.892159   182A      0.904185  
     183A      0.912238   184A      0.932391   185A      0.946501  
     186A      0.958559   187A      0.966842   188A      0.988886  
     189A      1.013560   190A      1.018816   191A      1.024729  
     192A      1.040623   193A      1.050408   194A      1.067562  
     195A      1.076875   196A      1.100699   197A      1.112547  
     198A      1.143844   199A      1.153030   200A      1.169813  
     201A      1.193947   202A      1.213875   203A      1.250386  
     204A      1.275431   205A      1.277664   206A      1.284733  
     207A      1.292430   208A      1.322137   209A      1.327643  
     210A      1.335571   211A      1.353540   212A      1.370175  
     213A      1.375580   214A      1.395068   215A      1.399048  
     216A      1.403377   217A      1.426429   218A      1.453632  
     219A      1.460068   220A      1.460555   221A      1.466810  
     222A      1.490548   223A      1.494264   224A      1.499314  
     225A      1.504369   226A      1.521234   227A      1.533105  
     228A      1.545843   229A      1.562596   230A      1.570842  
     231A      1.581541   232A      1.607383   233A      1.625659  
     234A      1.630674   235A      1.647972   236A      1.653508  
     237A      1.658346   238A      1.707068   239A      1.716176  
     240A      1.722557   241A      1.753361   242A      1.760446  
     243A      1.770094   244A      1.800955   245A      1.814167  
     246A      1.814832   247A      1.818211   248A      1.832978  
     249A      1.843064   250A      1.864032   251A      1.881970  
     252A      1.890992   253A      1.910210   254A      1.913046  
     255A      1.917382   256A      1.922248   257A      1.929645  
     258A      1.943803   259A      1.961624   260A      1.962961  
     261A      1.973660   262A      1.986937   263A      1.990572  
     264A      2.002171   265A      2.004395   266A      2.014118  
     267A      2.038180   268A      2.045325   269A      2.069429  
     270A      2.088205   271A      2.100798   272A      2.121645  
     273A      2.130026   274A      2.142719   275A      2.147576  
     276A      2.178580   277A      2.212455   278A      2.243337  
     279A      2.247324   280A      2.271552   281A      2.290049  
     282A      2.315092   283A      2.322994   284A      2.343091  
     285A      2.351821   286A      2.356589   287A      2.378827  
     288A      2.398702   289A      2.411241   290A      2.425386  
     291A      2.438637   292A      2.481284   293A      2.524222  
     294A      2.605410   295A      2.641903   296A      2.698643  
     297A      2.726275   298A      2.778695   299A      2.817451  
     300A      2.869619   301A      2.892349   302A      2.958248  
     303A      2.972871   304A      2.984638   305A      3.062720  
     306A      3.082402   307A      3.945631   308A      4.060862  
     309A      4.088817   310A      4.163229   311A      4.234272  
     312A      4.253313   313A      4.286798   314A      4.346897  
     315A      4.375944   316A      4.404706   317A      4.432577  
     318A      4.473081   319A      4.526012   320A      4.610399  
     321A      5.569988   322A      6.533398  

    Final Occupation by Irrep:
              A 
    DOCC [    62 ]

  @DF-RKS Final Energy: -1187.22833751811459

   => Energetics <=

    Nuclear Repulsion Energy =           1052.3904567020415470
    One-Electron Energy =               -3719.9349134648177824
    Two-Electron Energy =                1568.2280938589963171
    DFT Exchange-Correlation Energy =     -87.8978259127601973
    Empirical Dispersion Energy =          -0.0141487015742029
    VV10 Nonlocal Energy =                  0.0000000000000000
    Total Energy =                      -1187.2283375181145857

Computation Completed


Properties will be evaluated at   0.000000,   0.000000,   0.000000 [a0]

Properties computed using the SCF density matrix

  Nuclear Dipole Moment: [e a0]
     X:    26.8307      Y:     0.4891      Z:    -1.5399

  Electronic Dipole Moment: [e a0]
     X:   -20.5011      Y:    -1.4309      Z:     0.3197

  Dipole Moment: [e a0]
     X:     6.3296      Y:    -0.9418      Z:    -1.2203     Total:     6.5146

  Dipole Moment: [D]
     X:    16.0882      Y:    -2.3938      Z:    -3.1017     Total:    16.5584


*** tstop() called on cpu-spot-dy-c5n2xlarge-1 at Tue Jun 22 02:49:38 2021
Module time:
	user time   =     737.99 seconds =      12.30 minutes
	system time =      10.55 seconds =       0.18 minutes
	total time  =         96 seconds =       1.60 minutes
Total time:
	user time   =    1458.74 seconds =      24.31 minutes
	system time =      24.53 seconds =       0.41 minutes
	total time  =        197 seconds =       3.28 minutes

*** tstart() called on cpu-spot-dy-c5n2xlarge-1
*** at Tue Jun 22 02:49:38 2021


         ------------------------------------------------------------
                                   SCF GRAD                          
                          Rob Parrish, Justin Turney,                
                       Andy Simmonett, and Alex Sokolov              
         ------------------------------------------------------------

  ==> Geometry <==

    Molecular point group: c1
    Full point group: C1

    Geometry (in Angstrom), charge = 0, multiplicity = 1:

       Center              X                  Y                   Z               Mass       
    ------------   -----------------  -----------------  -----------------  -----------------
         N           -1.202282633766    -1.613457645202    -1.053590279590    14.003074004430
         C           -2.487892459829    -1.294805790994    -0.693618474561    12.000000000000
         C           -2.666126353305     0.277786148243     0.463753990959    12.000000000000
         F           -3.544209683665     1.348613029160    -0.416971431046    18.998403162730
         F           -3.263202431893    -0.322886259863     1.889942301760    18.998403162730
         C           -1.306099263643     1.373617398396     1.071737399361    12.000000000000
         C           -0.031314277488     0.809350440489     0.539762401817    12.000000000000
         C            1.231956328938     1.725321926845     1.068680982173    12.000000000000
         C            2.448046414492     1.218041051533     0.590274791306    12.000000000000
         C            2.507521873012    -0.238223083659    -0.463419725699    12.000000000000
         C            1.252243797576    -1.179548745016    -0.983858360851    12.000000000000
         C            0.036450990491    -0.658411337598    -0.500721392737    12.000000000000
         S            3.970919742040    -1.052387694154    -1.155399641621    31.972071174400
         C            5.375214101697     0.326927862350    -0.050522887730    12.000000000000
         O           -3.503970517889    -2.201025418657    -1.247952029588    15.994914619570
         O           -1.432759262410     2.628903281666     1.956988578576    15.994914619570
         H            3.406392242442     1.953850315604     1.050463496293     1.007825032230
         H            1.168172731249     2.853697663170     1.877073091546     1.007825032230
         H           -1.123890596657    -2.659299191378    -1.812701655418     1.007825032230
         H            1.293105269439    -2.325035156372    -1.782386478219     1.007825032230
         H            5.037015941270     1.651157080944     0.128503212981     1.007825032230
         H            5.673338296057    -0.212621241309     1.241495486037     1.007825032230
         H            6.225860911434     0.314585693766    -0.837268142853     1.007825032230

  Nuclear repulsion = 1052.390456702041547

  ==> Basis Set <==

  Basis Set: 6-31+G*
    Blend: 6-31+G*
    Number of shells: 144
    Number of basis function: 322
    Number of Cartesian functions: 322
    Spherical Harmonics?: false
    Max angular momentum: 2

  ==> DFJKGrad: Density-Fitted SCF Gradients <==

    Gradient:                    1
    J tasked:                  Yes
    K tasked:                  Yes
    wK tasked:                 Yes
    Omega:               2.000E-01
    OpenMP threads:              8
    Integrals threads:           8
    Memory [MiB]:            11444
    Schwarz Cutoff:          0E+00
    Fitting Condition:       1E-10

   => Auxiliary Basis Set <=

  Basis Set: (6-31+G* AUX)
    Blend: HEAVY-AUG-CC-PVDZ-JKFIT
    Number of shells: 523
    Number of basis function: 1840
    Number of Cartesian functions: 1840
    Spherical Harmonics?: false
    Max angular momentum: 3

  ==> DFT Potential <==

   => Composite Functional: WB97X-D <= 

    wB97X-D Hyb-GGA Exchange-Correlation Functional

    J.-D. Chai and M. Head-Gordon, Phys. Chem. Chem. Phys. 10, 6615 (2008)

    Deriv               =              1
    GGA                 =           TRUE
    Meta                =          FALSE

    Exchange Hybrid     =           TRUE
    MP2 Hybrid          =          FALSE

   => Exchange-Correlation Functionals <=

    1.0000   wB97D range-separated functional

   => Exact (HF) Exchange <=

    0.7780            HF,LR [omega = 0.2000]
    0.2220               HF 

   => Molecular Quadrature <=

    Radial Scheme          =       TREUTLER
    Pruning Scheme         =           FLAT
    Nuclear Scheme         =       TREUTLER

    BS radius alpha        =              1
    Pruning alpha          =              1
    Radial Points          =             75
    Spherical Points       =            302
    Total Points           =         520866
    Total Blocks           =           3887
    Max Points             =            256
    Max Functions          =            272


  -Total Gradient:
     Atom            X                  Y                   Z
    ------   -----------------  -----------------  -----------------
       1       -0.011634090952    -0.018663037322    -0.012154624929
       2        0.087975308463     0.090358820210     0.056466401270
       3        0.021197281101    -0.027240024848    -0.019693704833
       4       -0.041953441718     0.074599597185    -0.059849295285
       5       -0.023668297674    -0.038057789811     0.094230092243
       6        0.003341988492    -0.055127224412    -0.039445526425
       7        0.016022933925    -0.024559130680    -0.019485918551
       8        0.023661895498     0.043039752170     0.029024275583
       9       -0.017802490112     0.000502578183     0.000077294809
      10        0.026174276436     0.019565731721     0.004770896357
      11       -0.021386701021    -0.041556156444    -0.024709241604
      12        0.010332533891     0.004897116126     0.002619202791
      13       -0.011387525020    -0.086637221279    -0.068248871580
      14       -0.012536502850    -0.015577190738    -0.029879793040
[...]
	   Coordinate                Previous        Force       Change         New 
	   ----------                --------       ------       ------       ------
	    1 R(1,2)          =      1.370474    -0.001068    -0.000483     1.369991
	    2 R(1,12)         =      1.398809    -0.001262    -0.000542     1.398266
	    3 R(1,19)         =      1.013297    -0.000519    -0.000201     1.013096
	    4 R(2,3)          =      1.548284    -0.001108    -0.000644     1.547640
	    5 R(2,15)         =      1.209247    -0.002274    -0.000344     1.208903
	    6 R(3,4)          =      1.345433    -0.004054    -0.000752     1.344681
	    7 R(3,5)          =      1.364561     0.006860     0.001324     1.365886
	    8 R(3,6)          =      1.553056    -0.001906    -0.000907     1.552149
	    9 R(6,7)          =      1.466636    -0.001887    -0.000586     1.466049
	   10 R(6,16)         =      1.210361     0.002882     0.000349     1.210711
	   11 R(7,8)          =      1.398743    -0.000816    -0.000371     1.398371
	   12 R(7,12)         =      1.405618     0.000332    -0.000156     1.405462
	   13 R(8,9)          =      1.383232     0.000262    -0.000007     1.383225
	   14 R(8,18)         =      1.086224    -0.000944    -0.000463     1.085761
	   15 R(9,10)         =      1.404315    -0.001406    -0.000515     1.403800
	   16 R(9,17)         =      1.082949    -0.000595    -0.000355     1.082594
	   17 R(10,11)        =      1.400090     0.000600     0.000061     1.400151
	   18 R(10,13)        =      1.763971    -0.000244    -0.000026     1.763945
	   19 R(11,12)        =      1.391107    -0.001025    -0.000305     1.390802
	   20 R(11,20)        =      1.087948    -0.001124    -0.000515     1.087433
	   21 R(13,14)        =      1.811339     0.003221     0.001036     1.812375
	   22 R(14,21)        =      1.091670    -0.002043    -0.000765     1.090905
	   23 R(14,22)        =      1.093306    -0.001552    -0.000626     1.092680
	   24 R(14,23)        =      1.091466    -0.000450    -0.000114     1.091352
	   25 B(1,2,3)        =    115.571770    -0.000000    -0.001505   115.570265
	   26 B(1,2,15)       =    122.936723     0.000006     0.023792   122.960515
	   27 B(1,12,7)       =    120.817937    -0.000008    -0.036850   120.781087
	   28 B(1,12,11)      =    119.116337     0.000008     0.031867   119.148204
	   29 B(2,1,12)       =    126.920962     0.000005     0.005360   126.926323
	   30 B(2,1,19)       =    114.479567     0.000002     0.023880   114.503447
	   31 B(2,3,4)        =    108.642445    -0.000011    -0.099343   108.543102
	   32 B(2,3,5)        =    106.007313     0.000014     0.103213   106.110526
	   33 B(2,3,6)        =    117.552482    -0.000006    -0.031806   117.520676
	   34 B(3,2,15)       =    121.467898    -0.000006    -0.033639   121.434259
	   35 B(3,6,7)        =    116.443723     0.000008     0.007865   116.451587
	   36 B(3,6,16)       =    118.656915    -0.000002     0.004168   118.661083
	   37 B(4,3,5)        =    108.369634    -0.000007    -0.059548   108.310086
	   38 B(4,3,6)        =    109.282283     0.000017     0.088642   109.370924
	   39 B(5,3,6)        =    106.618258    -0.000008    -0.003585   106.614673
	   40 B(6,7,8)        =    120.199476     0.000008     0.028804   120.228280
	   41 B(6,7,12)       =    120.975399    -0.000002     0.011577   120.986975
	   42 B(7,6,16)       =    124.848617    -0.000005    -0.008898   124.839719
	   43 B(7,8,9)        =    121.497056     0.000006     0.037469   121.534525
	   44 B(7,8,18)       =    117.993182    -0.000001    -0.013641   117.979541
	   45 B(7,12,11)      =    120.065521    -0.000000     0.004664   120.070185
	   46 B(8,7,12)       =    118.824308    -0.000006    -0.040259   118.784049
	   47 B(8,9,10)       =    119.517047     0.000001     0.007292   119.524339
	   48 B(8,9,17)       =    119.052197     0.000001     0.015226   119.067422
	   49 B(9,8,18)       =    120.507534    -0.000005    -0.023607   120.483928
	   50 B(9,10,11)      =    119.573432    -0.000007    -0.042959   119.530473
	   51 B(9,10,13)      =    125.238809     0.000007     0.031918   125.270727
	   52 B(10,9,17)      =    121.427979    -0.000003    -0.022775   121.405205
	   53 B(10,11,12)     =    120.504234     0.000006     0.035788   120.540022
	   54 B(10,11,20)     =    119.764663    -0.000003    -0.010295   119.754368
	   55 B(10,13,14)     =    105.555662    -0.000000     0.016053   105.571715
	   56 B(11,10,13)     =    115.159444    -0.000001     0.011067   115.170511
	   57 B(12,1,19)      =    118.589739    -0.000007    -0.037260   118.552480
	   58 B(12,11,20)     =    119.729920    -0.000003    -0.024980   119.704940
	   59 B(13,14,21)     =    112.584132    -0.000035    -0.245346   112.338786
	   60 B(13,14,22)     =    111.017781    -0.000023    -0.136682   110.881099
	   61 B(13,14,23)     =    106.563456    -0.000015    -0.089725   106.473732
	   62 B(21,14,22)     =    108.383318     0.000035     0.236496   108.619814
	   63 B(21,14,23)     =    109.037832     0.000016     0.074082   109.111914
	   64 B(22,14,23)     =    109.189467     0.000024     0.168704   109.358171
	   65 D(1,2,3,4)      =    138.004249     0.000006     0.341930   138.346179
	   66 D(1,2,3,5)      =   -105.713299     0.000004     0.277735  -105.435564
	   67 D(1,2,3,6)      =     13.316629     0.000004     0.331504    13.648132
	   68 D(1,12,7,6)     =      0.218692     0.000001     0.001490     0.220182
	   69 D(1,12,7,8)     =   -179.453045     0.000001    -0.023958  -179.477003
	   70 D(1,12,11,10)   =    178.797127    -0.000001     0.039783   178.836910
	   71 D(1,12,11,20)   =     -0.806254    -0.000001    -0.058249    -0.864503
	   72 D(2,1,12,7)     =     -2.468062     0.000002     0.230532    -2.237530
	   73 D(2,1,12,11)    =    177.696383     0.000004     0.329139   178.025522
	   74 D(2,3,6,7)      =    -15.292719    -0.000001    -0.143792   -15.436511
	   75 D(2,3,6,16)     =    167.171592    -0.000003    -0.220844   166.950749
	   76 D(3,2,1,12)     =     -4.663417    -0.000004    -0.389547    -5.052964
	   77 D(3,2,1,19)     =    176.496647    -0.000001     0.017599   176.514246
	   78 D(3,6,7,8)      =   -171.651890    -0.000001     0.005836  -171.646054
	   79 D(3,6,7,12)     =      8.680864    -0.000001    -0.019752     8.661112
	   80 D(4,3,2,15)     =    -43.713579    -0.000000    -0.029975   -43.743555
	   81 D(4,3,6,7)      =   -139.660795    -0.000000    -0.059891  -139.720686
	   82 D(4,3,6,16)     =     42.803516    -0.000002    -0.136943    42.666573
	   83 D(5,3,2,15)     =     72.568872    -0.000001    -0.094170    72.474703
	   84 D(5,3,6,7)      =    103.412878     0.000001    -0.033282   103.379596
	   85 D(5,3,6,16)     =    -74.122810    -0.000001    -0.110334   -74.233145
	   86 D(6,3,2,15)     =   -168.401200    -0.000002    -0.040401  -168.441601
	   87 D(6,7,8,9)      =   -179.952939     0.000001     0.042600  -179.910340
	   88 D(6,7,8,18)     =      0.587473     0.000000     0.015197     0.602670
	   89 D(6,7,12,11)    =   -179.947307    -0.000001    -0.097979  -180.045286
	   90 D(7,8,9,10)     =      0.819738    -0.000000    -0.024828     0.794909
	   91 D(7,8,9,17)     =   -178.582776    -0.000000     0.002344  -178.580432
	   92 D(7,12,1,19)    =    176.329539    -0.000001    -0.190596   176.138943
	   93 D(7,12,11,10)   =     -1.039693     0.000001     0.137744    -0.901949
	   94 D(7,12,11,20)   =    179.356926     0.000001     0.039712   179.396638
	   95 D(8,7,6,16)     =      5.712994     0.000001     0.088614     5.801608
	   96 D(8,7,12,11)    =      0.380956    -0.000001    -0.123427     0.257529
	   97 D(8,9,10,11)    =     -1.453888     0.000000     0.037857    -1.416031
	   98 D(8,9,10,13)    =   -179.420609     0.000000     0.036808  -179.383801
	   99 D(9,8,7,12)     =     -0.278585     0.000001     0.067794    -0.210791
	  100 D(9,10,11,12)   =      1.575047    -0.000001    -0.094390     1.480657
	  101 D(9,10,11,20)   =   -178.821710    -0.000000     0.003632  -178.818077
	  102 *D(9,10,13,14)  =      4.364805    -0.000000    -0.000000     4.364805
	  103 D(10,9,8,18)    =   -179.734124     0.000000     0.003318  -179.730806
	  104 *D(10,13,14,21) =    -36.132033    -0.000000    -0.000000   -36.132033
	  105 D(10,13,14,22)  =     85.584690     0.000001     0.033567    85.618257
	  106 D(10,13,14,23)  =   -155.622874     0.000002     0.107660  -155.515214
	  107 D(11,10,9,17)   =    177.934004     0.000000     0.010270   177.944274
	  108 *D(11,10,13,14) =   -173.681480    -0.000000     0.000000  -173.681480
	  109 D(11,12,1,19)   =     -3.506017     0.000001    -0.091989    -3.598006
	  110 D(12,1,2,15)    =    177.082382     0.000002    -0.010246   177.072136
	  111 D(12,7,6,16)    =   -173.954252     0.000001     0.063026  -173.891226
	  112 D(12,7,8,18)    =   -179.738172     0.000000     0.040391  -179.697782
	  113 D(12,11,10,13)  =    179.740363    -0.000001    -0.092888   179.647475
	  114 D(13,10,9,17)   =     -0.032717     0.000000     0.009221    -0.023496
	  115 D(13,10,11,20)  =     -0.656394    -0.000000     0.005135    -0.651259
	  116 D(15,2,1,19)    =     -1.757554     0.000005     0.396900    -1.360654
	  117 D(17,9,8,18)    =      0.863362     0.000000     0.030490     0.893852
	  118 R(1,X)          =     -0.953256    -0.000069     0.000045    -0.953212
	  119 R(1,Y)          =     -1.270273     0.001314    -0.000356    -1.270629
	  120 R(1,Z)          =     -0.886241     0.000963     0.002214    -0.884026
	  121 R(2,X)          =     -2.293826     0.000861     0.000476    -2.293349
	  122 R(2,Y)          =     -1.047754     0.002777     0.002319    -1.045435
	  123 R(2,Z)          =     -0.708594    -0.002084    -0.001667    -0.710261
	  124 R(3,X)          =     -2.657396     0.000568     0.000454    -2.656942
	  125 R(3,Y)          =      0.137338     0.000580     0.000043     0.137381
	  126 R(3,Z)          =      0.219068    -0.001243     0.000153     0.219221
	  127 R(4,X)          =     -3.681179     0.001802    -0.000442    -3.681621
	  128 R(4,Y)          =      0.815463    -0.004441    -0.002164     0.813299
	  129 R(4,Z)          =     -0.330665     0.000188     0.000945    -0.329719
	  130 R(5,X)          =     -3.088342    -0.001311     0.000370    -3.087972
	  131 R(5,Y)          =     -0.418566    -0.000285    -0.000486    -0.419052
	  132 R(5,Z)          =      1.388378     0.005659     0.001416     1.389794
	  133 R(6,X)          =     -1.524339    -0.000087    -0.000250    -1.524590
	  134 R(6,Y)          =      1.132142    -0.001644    -0.000408     1.131734
	  135 R(6,Z)          =      0.591264    -0.001257    -0.000283     0.590981
	  136 R(7,X)          =     -0.151934    -0.001315    -0.000691    -0.152625
	  137 R(7,Y)          =      0.687488    -0.000108    -0.000208     0.687279
	  138 R(7,Z)          =      0.327057     0.000254     0.000345     0.327402
	  139 R(8,X)          =      0.932759    -0.001437    -0.000722     0.932037
	  140 R(8,Y)          =      1.440491    -0.001085    -0.000635     1.439856
	  141 R(8,Z)          =      0.788476    -0.000337    -0.000012     0.788464
	  142 R(9,X)          =      2.237837    -0.000916    -0.000561     2.237276
	  143 R(9,Y)          =      1.046771    -0.000442     0.000017     1.046788
	  144 R(9,Z)          =      0.553769    -0.000060    -0.000170     0.553599
	  145 R(10,X)         =      2.485779     0.000064     0.000018     2.485797
	  146 R(10,Y)         =     -0.125673     0.000848     0.000483    -0.125190
	  147 R(10,Z)         =     -0.178352     0.000903     0.000267    -0.178085
	  148 R(11,X)         =      1.409402    -0.000822    -0.000272     1.409131
	  149 R(11,Y)         =     -0.896209     0.000960     0.000794    -0.895415
	  150 R(11,Z)         =     -0.634354     0.000962     0.000237    -0.634117
	  151 R(12,X)         =      0.100054    -0.000246    -0.000151     0.099903
	  152 R(12,Y)         =     -0.491517    -0.000549    -0.000536    -0.492054
	  153 R(12,Z)         =     -0.395585     0.000701     0.001373    -0.394212
	  154 R(13,X)         =      4.083346    -0.000605    -0.000066     4.083280
	  155 R(13,Y)         =     -0.773393     0.000049     0.000204    -0.773188
	  156 R(13,Z)         =     -0.552297     0.000580     0.000518    -0.551779
	  157 R(14,X)         =      5.258007     0.002202     0.001059     5.259065
	  158 R(14,Y)         =      0.304774     0.001442     0.000378     0.305152
	  159 R(14,Z)         =      0.307167     0.001785     0.000945     0.308112
	  160 R(15,X)         =     -3.147641     0.001752     0.000391    -3.147251
	  161 R(15,Y)         =     -1.742006     0.004007     0.002354    -1.739652
	  162 R(15,Z)         =     -1.209883     0.000181    -0.000739    -1.210622
	  163 R(16,X)         =     -1.822627    -0.000753    -0.000430    -1.823057
	  164 R(16,Y)         =      2.183156     0.001494     0.000758     2.183915
	  165 R(16,Z)         =      1.112194    -0.001272    -0.001931     1.110263
	  166 R(17,X)         =      3.047542    -0.001580    -0.000889     3.046653
	  167 R(17,Y)         =      1.647505    -0.000449    -0.000112     1.647393
	  168 R(17,Z)         =      0.949086    -0.000320    -0.000273     0.948813
	  169 R(18,X)         =      0.722556    -0.000822    -0.000575     0.721980
	  170 R(18,Y)         =      2.346793    -0.001739    -0.000939     2.345853
	  171 R(18,Z)         =      1.349113    -0.000878    -0.000362     1.348751
	  172 R(19,X)         =     -0.733652     0.000465     0.000318    -0.733334
	  173 R(19,Y)         =     -2.082714     0.002026     0.001138    -2.081576
	  174 R(19,Z)         =     -1.450584     0.001077     0.000534    -1.450049
	  175 R(20,X)         =      1.598120    -0.000851    -0.000457     1.597663
	  176 R(20,Y)         =     -1.815199     0.002033     0.001129    -1.814070
	  177 R(20,Z)         =     -1.185239     0.001381     0.000633    -1.184606
	  178 R(21,X)         =      4.941170    -0.003126    -0.002147     4.939023
	  179 R(21,Y)         =      1.349437    -0.002285    -0.001388     1.348049
	  180 R(21,Z)         =      0.313274    -0.002220    -0.001469     0.311805
	  181 R(22,X)         =      5.401873    -0.000723    -0.000352     5.401521
	  182 R(22,Y)         =     -0.017956    -0.002372    -0.001774    -0.019730
	  183 R(22,Z)         =      1.341799    -0.000638    -0.000195     1.341604
	  184 R(23,X)         =      6.205131    -0.000338    -0.000333     6.204797
	  185 R(23,Y)         =      0.223115     0.000479     0.000396     0.223511
	  186 R(23,Z)         =     -0.229105    -0.001640    -0.001276    -0.230381
	 ---------------------------------------------------------------------------
	Successfully symmetrized geometry.

  ==> Convergence Check <==

  Measures of convergence in internal coordinates in au.
  Criteria marked as inactive (o), active & met (*), and active & unmet ( ).
  ---------------------------------------------------------------------------------------------
   Step     Total Energy     Delta E     MAX Force     RMS Force      MAX Disp      RMS Disp   
  ---------------------------------------------------------------------------------------------
    Convergence Criteria             o    2.50e-03 *    1.70e-03 *    1.00e-02 *    6.70e-03 *
  ---------------------------------------------------------------------------------------------
      2   -1188.12064935   -1.67e-04 o    8.33e-04 *    1.75e-04 *    6.93e-03 *    1.84e-03 *  ~
  ---------------------------------------------------------------------------------------------


  **** Optimization is complete! (in 2 steps) ****

  ==> Optimization Summary <==

  Measures of convergence in internal coordinates in au.
  --------------------------------------------------------------------------------------------------------------- ~
   Step         Total Energy             Delta E       MAX Force       RMS Force        MAX Disp        RMS Disp  ~
  --------------------------------------------------------------------------------------------------------------- ~
      1   -1188.120482344264  -1188.120482344264      0.00130043      0.00038226      0.03807405      0.00733017  ~
      2   -1188.120649349904     -0.000167005639      0.00083267      0.00017503      0.00692721      0.00184006  ~
  --------------------------------------------------------------------------------------------------------------- ~

	Writing optimization data to binary file.
	Final energy is  -1188.1206493499039
	Final (previous) structure:
	Cartesian Geometry (in Angstrom)
	    N    -0.9532564051  -1.2702725480  -0.8862408799
	    C    -2.2938255989  -1.0477541698  -0.7085938275
	    C    -2.6573959611   0.1373378709   0.2190684110
	    F    -3.6811788333   0.8154626019  -0.3306646563
	    F    -3.0883418478  -0.4185658446   1.3883776836
	    C    -1.5243393805   1.1321421422   0.5912643082
	    C    -0.1519340037   0.6874878055   0.3270566152
	    C     0.9327590989   1.4404911334   0.7884760825
	    C     2.2378369107   1.0467712519   0.5537687771
	    C     2.4857792817  -0.1256728960  -0.1783518397
	    C     1.4094021132  -0.8962087497  -0.6343544527
	    C     0.1000542705  -0.4915174520  -0.3955849825
	    S     4.0833455033  -0.7733925397  -0.5522969036
	    C     5.2580067063   0.3047740093   0.3071665121
	    O    -3.1476414522  -1.7420058666  -1.2098834928
	    O    -1.8226274156   2.1831564691   1.1121940602
	    H     3.0475418468   1.6475047901   0.9490858804
	    H     0.7225557241   2.3467926420   1.3491130656
	    H    -0.7336515580  -2.0827141381  -1.4505838501
	    H     1.5981201776  -1.8151991831  -1.1852390474
	    H     4.9411699079   1.3494371421   0.3132741011
	    H     5.4018726336  -0.0179555379   1.3417994065
	    H     6.2051306256   0.2231149478  -0.2291049847
	Saving final (previous) structure.
			--------------------------
			 OPTKING Finished Execution 
			--------------------------

    Final optimized geometry and variables:
    Molecular point group: c1
    Full point group: C1

    Geometry (in Angstrom), charge = 0, multiplicity = 1:

    N           -0.953256408882    -1.270272552965    -0.886240883353
    C           -2.293825607934    -1.047754173930    -0.708593830321
    C           -2.657395971584     0.137337871475     0.219068411838
    F           -3.681178847811     0.815462605074    -0.330664657608
    F           -3.088341859933    -0.418565846210     1.388377689096
    C           -1.524339386538     1.132142146694     0.591264310574
    C           -0.151934004315     0.687487808251     0.327056616494
    C            0.932759102537     1.440491139060     0.788476085624
    C            2.237836919485     1.046771256016     0.553768779271
    C            2.485779291485    -0.125672896467    -0.178351840354
    C            1.409402118770    -0.896208753246    -0.634354455223
    C            0.100054270890    -0.491517453903    -0.395584984072
    S            4.083345519392    -0.773392542754    -0.552296905731
    C            5.258006726974     0.304774010474     0.307166513272
    O           -3.147641464551    -1.742005873478    -1.209883497553
    O           -1.822627422808     2.183156477729     1.112194064545
    H            3.047541858771     1.647504796538     0.949085884135
    H            0.722555726907     2.346792651184     1.349113070900
    H           -0.733651560878    -2.082714146282    -1.450583855842
    H            1.598120183854    -1.815199190197    -1.185239052064
    H            4.941169927312     1.349437147414     0.313274102328
    H            5.401872654880    -0.017955537977     1.341799411814
    H            6.205130649969     0.223114948690    -0.229104985568

	Removing binary optimization data file.
	Cleaning optimization helper files.

    Psi4 stopped on: Tuesday, 22 June 2021 03:17AM
    Psi4 wall time for execution: 0:31:32.65

*** Psi4 exiting successfully. Buy a developer a beer!
