
    -----------------------------------------------------------------------
          Psi4: An Open-Source Ab Initio Electronic Structure Package
                               Psi4 1.3.2 release

                         Git: Rev {HEAD} ecbda83 


    R. M. Parrish, L. A. Burns, D. G. A. Smith, A. C. Simmonett,
    A. E. DePrince III, E. G. Hohenstein, U. Bozkaya, A. Yu. Sokolov,
    R. Di Remigio, R. M. Richard, J. F. Gonthier, A. M. James,
    H. R. McAlexander, A. Kumar, M. Saitow, X. Wang, B. P. Pritchard,
    P. Verma, H. F. Schaefer III, K. Patkowski, R. A. King, E. F. Valeev,
    F. A. Evangelista, J. M. Turney, T. D. Crawford, and C. D. Sherrill,
    J. Chem. Theory Comput. 13(7) pp 3185--3197 (2017).
    (doi: 10.1021/acs.jctc.7b00174)


                         Additional Contributions by
    P. Kraus, H. Kruse, M. H. Lechner, M. C. Schieber, R. A. Shaw,
    A. Alenaizan, R. Galvelis, Z. L. Glick, S. Lehtola, and J. P. Misiewicz

    -----------------------------------------------------------------------


    Psi4 started on: Tuesday, 22 June 2021 07:21AM

    Process ID: 31818
    Host:       cpu-spot-dy-c5n2xlarge-1
    PSIDATADIR: /fsx/users/francis/anaconda3/envs/poltype-dev/share/psi4
    Memory:     500.0 MiB
    Threads:    1
    
  ==> Input File <==

--------------------------------------------------------------------------
molecule { 
0 1
 N   -0.424050   -1.285151    0.936733
 C   -1.758123   -1.240972    1.244472
 C   -2.547246   -0.042194    0.665394
 F   -3.539134   -0.551555   -0.105652
 F   -3.112420    0.608856    1.710791
 C   -1.767335    0.998686   -0.184042
 C   -0.336794    0.756479   -0.388931
 C    0.427845    1.654121   -1.150107
 C    1.773693    1.447412   -1.358518
 C    2.401890    0.314430   -0.803040
 C    1.657917   -0.581722   -0.035612
 C    0.293362   -0.365520    0.166493
 S    4.129995    0.161948   -1.101725
 C    4.561215   -1.433257   -0.365699
 O   -2.303143   -2.081048    1.922372
 O   -2.378038    1.943436   -0.633066
 H    2.349305    2.150567   -1.952957
 H   -0.072305    2.519724   -1.573532
 H    0.068625   -2.080844    1.324489
 H    2.121861   -1.454656    0.411892
 H    4.432347   -1.429509    0.720091
 H    3.994872   -2.251547   -0.818574
 H    5.620839   -1.580268   -0.587116
}
memory 16GB
set_num_threads(8)
psi4_io.set_default_path("/scratch/Psi4-ligand")
set freeze_core True
E, wfn = energy('wb97x-d/6-311++g**',return_wfn=True)
oeprop(wfn,"WIBERG_LOWDIN_INDICES")
clean()
--------------------------------------------------------------------------

  Memory set to  14.901 GiB by Python driver.
  Threads set to 8 by Python driver.

*** tstart() called on cpu-spot-dy-c5n2xlarge-1
*** at Tue Jun 22 07:21:37 2021

   => Loading Basis Set <=

    Name: 6-311++G**
    Role: ORBITAL
    Keyword: BASIS
    atoms 1             entry N          line   140 file /fsx/users/francis/anaconda3/envs/poltype-dev/share/psi4/basis/6-311ppgss.gbs 
    atoms 2-3, 6-12, 14 entry C          line   119 file /fsx/users/francis/anaconda3/envs/poltype-dev/share/psi4/basis/6-311ppgss.gbs 
    atoms 4-5           entry F          line   182 file /fsx/users/francis/anaconda3/envs/poltype-dev/share/psi4/basis/6-311ppgss.gbs 
    atoms 13            entry S          line   419 file /fsx/users/francis/anaconda3/envs/poltype-dev/share/psi4/basis/6-311ppgss.gbs 
    atoms 15-16         entry O          line   161 file /fsx/users/francis/anaconda3/envs/poltype-dev/share/psi4/basis/6-311ppgss.gbs 
    atoms 17-23         entry H          line    42 file /fsx/users/francis/anaconda3/envs/poltype-dev/share/psi4/basis/6-311ppgss.gbs 


         ---------------------------------------------------------
                                   SCF
               by Justin Turney, Rob Parrish, Andy Simmonett
                          and Daniel G. A. Smith
                              RKS Reference
                        8 Threads,  15258 MiB Core
         ---------------------------------------------------------

  ==> Geometry <==

    Molecular point group: c1
    Full point group: C1

    Geometry (in Angstrom), charge = 0, multiplicity = 1:

       Center              X                  Y                   Z               Mass       
    ------------   -----------------  -----------------  -----------------  -----------------
         N           -0.424050050706    -1.285151067806     0.936733126895    14.003074004430
         C           -1.758123050706    -1.240972067806     1.244472126895    12.000000000000
         C           -2.547246050706    -0.042194067806     0.665394126895    12.000000000000
         F           -3.539134050706    -0.551555067806    -0.105651873105    18.998403162730
         F           -3.112420050706     0.608855932194     1.710791126895    18.998403162730
         C           -1.767335050706     0.998685932194    -0.184041873105    12.000000000000
         C           -0.336794050706     0.756478932194    -0.388930873105    12.000000000000
         C            0.427844949294     1.654120932194    -1.150106873105    12.000000000000
         C            1.773692949294     1.447411932194    -1.358517873105    12.000000000000
         C            2.401889949294     0.314429932194    -0.803039873105    12.000000000000
         C            1.657916949294    -0.581722067806    -0.035611873105    12.000000000000
         C            0.293361949294    -0.365520067806     0.166493126895    12.000000000000
         S            4.129994949294     0.161947932194    -1.101724873105    31.972071174400
         C            4.561214949294    -1.433257067806    -0.365698873105    12.000000000000
         O           -2.303143050706    -2.081048067806     1.922372126895    15.994914619570
         O           -2.378038050706     1.943435932194    -0.633065873105    15.994914619570
         H            2.349304949294     2.150566932194    -1.952956873105     1.007825032230
         H           -0.072305050706     2.519723932194    -1.573531873105     1.007825032230
         H            0.068624949294    -2.080844067806     1.324489126895     1.007825032230
         H            2.121860949294    -1.454656067806     0.411892126895     1.007825032230
         H            4.432346949294    -1.429509067806     0.720091126895     1.007825032230
         H            3.994871949294    -2.251547067806    -0.818573873105     1.007825032230
         H            5.620838949294    -1.580268067806    -0.587115873105     1.007825032230

  Running in c1 symmetry.

  Rotational constants: A =      0.03596  B =      0.00876  C =      0.00733 [cm^-1]
  Rotational constants: A =   1078.14707  B =    262.50668  C =    219.86833 [MHz]
  Nuclear repulsion = 1191.359203410643886

  Charge       = 0
  Multiplicity = 1
  Electrons    = 124
  Nalpha       = 62
  Nbeta        = 62

  ==> Algorithm <==

  SCF Algorithm Type is DF.
  DIIS enabled.
  MOM disabled.
  Fractional occupation disabled.
  Guess Type is SAD.
  Energy threshold   = 1.00e-06
  Density threshold  = 1.00e-06
  Integral threshold = 0.00e+00

  ==> Primary Basis <==

  Basis Set: 6-311++G**
    Blend: 6-311++G**
    Number of shells: 199
    Number of basis function: 409
    Number of Cartesian functions: 425
    Spherical Harmonics?: true
    Max angular momentum: 2

  ==> DFT Potential <==

   => Composite Functional: WB97X-D <= 

    wB97X-D Hyb-GGA Exchange-Correlation Functional

    J.-D. Chai and M. Head-Gordon, Phys. Chem. Chem. Phys. 10, 6615 (2008)

    Deriv               =              1
    GGA                 =           TRUE
    Meta                =          FALSE

    Exchange Hybrid     =           TRUE
    MP2 Hybrid          =          FALSE

   => Exchange-Correlation Functionals <=

    1.0000   wB97D range-separated functional

   => Exact (HF) Exchange <=

    0.7780            HF,LR [omega = 0.2000]
    0.2220               HF 

   => Molecular Quadrature <=

    Radial Scheme          =       TREUTLER
    Pruning Scheme         =           FLAT
    Nuclear Scheme         =       TREUTLER

    BS radius alpha        =              1
    Pruning alpha          =              1
    Radial Points          =             75
    Spherical Points       =            302
    Total Points           =         520862
    Total Blocks           =           3861
    Max Points             =            256
    Max Functions          =            318

   => WB97X-D: Empirical Dispersion <=

    Chai and Head-Gordon Dispersion Correction
    Chai, J.-D.; Head-Gordon, M. (2010), J. Chem. Phys., 132: 6615-6620

        s6 =       1.000000

   => Loading Basis Set <=

    Name: (6-311++G** AUX)
    Role: JKFIT
    Keyword: DF_BASIS_SCF
    atoms 1             entry N          line   224 file /fsx/users/francis/anaconda3/envs/poltype-dev/share/psi4/basis/aug-cc-pvtz-jkfit.gbs 
    atoms 2-3, 6-12, 14 entry C          line   162 file /fsx/users/francis/anaconda3/envs/poltype-dev/share/psi4/basis/aug-cc-pvtz-jkfit.gbs 
    atoms 4-5           entry F          line   348 file /fsx/users/francis/anaconda3/envs/poltype-dev/share/psi4/basis/aug-cc-pvtz-jkfit.gbs 
    atoms 13            entry S          line   730 file /fsx/users/francis/anaconda3/envs/poltype-dev/share/psi4/basis/aug-cc-pvtz-jkfit.gbs 
    atoms 15-16         entry O          line   286 file /fsx/users/francis/anaconda3/envs/poltype-dev/share/psi4/basis/aug-cc-pvtz-jkfit.gbs 
    atoms 17-23         entry H          line    70 file /fsx/users/francis/anaconda3/envs/poltype-dev/share/psi4/basis/aug-cc-pvtz-jkfit.gbs 

  ==> Pre-Iterations <==

   -------------------------------------------------------
    Irrep   Nso     Nmo     Nalpha   Nbeta   Ndocc  Nsocc
   -------------------------------------------------------
     A        409     409       0       0       0       0
   -------------------------------------------------------
    Total     409     409      62      62      62       0
   -------------------------------------------------------

  ==> Integral Setup <==

  ==> DiskDFJK: Density-Fitted J/K Matrices <==

    J tasked:                  Yes
    K tasked:                  Yes
    wK tasked:                 Yes
    Omega:               2.000E-01
    OpenMP threads:              8
    Integrals threads:           8
    Memory [MiB]:             7941
    Algorithm:                Core
    Integral Cache:           NONE
    Schwarz Cutoff:          1E-12
    Fitting Condition:       1E-10

   => Auxiliary Basis Set <=

  Basis Set: (6-311++G** AUX)
    Blend: AUG-CC-PVTZ-JKFIT
    Number of shells: 590
    Number of basis function: 2028
    Number of Cartesian functions: 2530
    Spherical Harmonics?: true
    Max angular momentum: 4

  Cached 100.0% of DFT collocation blocks in 3.420 [GiB].

  Minimum eigenvalue in the overlap matrix is 1.3534269486E-07.
  Using Symmetric Orthogonalization.

  SCF Guess: Superposition of Atomic Densities via on-the-fly atomic UHF.

  ==> Iterations <==

                           Total Energy        Delta E     RMS |[F,P]|

   @DF-RKS iter SAD: -1187.91828699934103   -1.18792e+03   0.00000e+00 
   @DF-RKS iter   1: -1187.70650902713169    2.11778e-01   2.91765e-03 DIIS
   @DF-RKS iter   2: -1187.75684366226778   -5.03346e-02   2.98650e-03 DIIS
   @DF-RKS iter   3: -1188.30577026509695   -5.48927e-01   6.52471e-04 DIIS
   @DF-RKS iter   4: -1188.32933458944558   -2.35643e-02   2.40936e-04 DIIS
   @DF-RKS iter   5: -1188.33343032309335   -4.09573e-03   6.33838e-05 DIIS
   @DF-RKS iter   6: -1188.33387279685439   -4.42474e-04   1.97737e-05 DIIS
   @DF-RKS iter   7: -1188.33393152110716   -5.87243e-05   8.04909e-06 DIIS
   @DF-RKS iter   8: -1188.33394850778222   -1.69867e-05   3.24873e-06 DIIS
   @DF-RKS iter   9: -1188.33395157916402   -3.07138e-06   1.50360e-06 DIIS
   @DF-RKS iter  10: -1188.33395193129513   -3.52131e-07   6.23837e-07 DIIS
  Energy and wave function converged.


  ==> Post-Iterations <==

    Orbital Energies [Eh]
    ---------------------

    Doubly Occupied:                                                      

       1A    -89.055388     2A    -24.839677     3A    -24.839411  
       4A    -19.268860     5A    -19.261935     6A    -14.518761  
       7A    -10.485495     8A    -10.437830     9A    -10.410971  
      10A    -10.392754    11A    -10.372523    12A    -10.344503  
      13A    -10.333281    14A    -10.332639    15A    -10.331094  
      16A    -10.322689    17A     -8.095963    18A     -6.045433  
      19A     -6.040997    20A     -6.035129    21A     -1.389846  
      22A     -1.328451    23A     -1.193824    24A     -1.179729  
      25A     -1.100092    26A     -1.006902    27A     -0.946212  
      28A     -0.905739    29A     -0.891980    30A     -0.867576  
      31A     -0.800552    32A     -0.772102    33A     -0.754319  
      34A     -0.741791    35A     -0.698104    36A     -0.683327  
      37A     -0.670509    38A     -0.649489    39A     -0.629927  
      40A     -0.593993    41A     -0.587257    42A     -0.570705  
      43A     -0.565821    44A     -0.561888    45A     -0.556604  
      46A     -0.552524    47A     -0.551572    48A     -0.534602  
      49A     -0.526549    50A     -0.517028    51A     -0.508636  
      52A     -0.503546    53A     -0.489302    54A     -0.482505  
      55A     -0.470953    56A     -0.445621    57A     -0.439675  
      58A     -0.396876    59A     -0.396102    60A     -0.364419  
      61A     -0.346040    62A     -0.319122  

    Virtual:                                                              

      63A     -0.043831    64A      0.013447    65A      0.020155  
      66A      0.040151    67A      0.041334    68A      0.053702  
      69A      0.054951    70A      0.064785    71A      0.071250  
      72A      0.072733    73A      0.075029    74A      0.087034  
      75A      0.098988    76A      0.099636    77A      0.103160  
      78A      0.107948    79A      0.109533    80A      0.118333  
      81A      0.126784    82A      0.129180    83A      0.133763  
      84A      0.135413    85A      0.137621    86A      0.150237  
      87A      0.153771    88A      0.154861    89A      0.161596  
      90A      0.162051    91A      0.163736    92A      0.167563  
      93A      0.175081    94A      0.184801    95A      0.184975  
      96A      0.187829    97A      0.191841    98A      0.192731  
      99A      0.200661   100A      0.202015   101A      0.204204  
     102A      0.205373   103A      0.218568   104A      0.219155  
     105A      0.223268   106A      0.226420   107A      0.227930  
     108A      0.236050   109A      0.239345   110A      0.245623  
     111A      0.248060   112A      0.255303   113A      0.261437  
     114A      0.268243   115A      0.270588   116A      0.273781  
     117A      0.282596   118A      0.285036   119A      0.288012  
     120A      0.294172   121A      0.298758   122A      0.305024  
     123A      0.305497   124A      0.310039   125A      0.317891  
     126A      0.323403   127A      0.334239   128A      0.336801  
     129A      0.341753   130A      0.347363   131A      0.349456  
     132A      0.355891   133A      0.359599   134A      0.362879  
     135A      0.372640   136A      0.373288   137A      0.382136  
     138A      0.383088   139A      0.388320   140A      0.397740  
     141A      0.400606   142A      0.403528   143A      0.405318  
     144A      0.408610   145A      0.421762   146A      0.427987  
     147A      0.432099   148A      0.437449   149A      0.439860  
     150A      0.448892   151A      0.453808   152A      0.465406  
     153A      0.469082   154A      0.478425   155A      0.481845  
     156A      0.514935   157A      0.521589   158A      0.527599  
     159A      0.539336   160A      0.542148   161A      0.542977  
     162A      0.579224   163A      0.583684   164A      0.590175  
     165A      0.605267   166A      0.614657   167A      0.618182  
     168A      0.619193   169A      0.632199   170A      0.636575  
     171A      0.641415   172A      0.657965   173A      0.660347  
     174A      0.673449   175A      0.688524   176A      0.693244  
     177A      0.695173   178A      0.703990   179A      0.721905  
     180A      0.732516   181A      0.745077   182A      0.747247  
     183A      0.753204   184A      0.764491   185A      0.768772  
     186A      0.780020   187A      0.785122   188A      0.788331  
     189A      0.803944   190A      0.821946   191A      0.829055  
     192A      0.844327   193A      0.853649   194A      0.862517  
     195A      0.870071   196A      0.878587   197A      0.891903  
     198A      0.904344   199A      0.924245   200A      0.933109  
     201A      0.939410   202A      0.944450   203A      0.964370  
     204A      0.973118   205A      0.980752   206A      0.992141  
     207A      1.000101   208A      1.008441   209A      1.017273  
     210A      1.022211   211A      1.030571   212A      1.046382  
     213A      1.065190   214A      1.096810   215A      1.102921  
     216A      1.105758   217A      1.118398   218A      1.127594  
     219A      1.134051   220A      1.155653   221A      1.168648  
     222A      1.179828   223A      1.204259   224A      1.211644  
     225A      1.213659   226A      1.224988   227A      1.250470  
     228A      1.262402   229A      1.263911   230A      1.289223  
     231A      1.295837   232A      1.308727   233A      1.325538  
     234A      1.337261   235A      1.369795   236A      1.389519  
     237A      1.413527   238A      1.465763   239A      1.474878  
     240A      1.481232   241A      1.494231   242A      1.508348  
     243A      1.522378   244A      1.541755   245A      1.553499  
     246A      1.577662   247A      1.582831   248A      1.593633  
     249A      1.597659   250A      1.605653   251A      1.608554  
     252A      1.623233   253A      1.638518   254A      1.649079  
     255A      1.655977   256A      1.667650   257A      1.673655  
     258A      1.692407   259A      1.696694   260A      1.718845  
     261A      1.721981   262A      1.754695   263A      1.764686  
     264A      1.779505   265A      1.794889   266A      1.820106  
     267A      1.829117   268A      1.848676   269A      1.851057  
     270A      1.863754   271A      1.878138   272A      1.897534  
     273A      1.911756   274A      1.937624   275A      1.950010  
     276A      1.951723   277A      1.988108   278A      1.995566  
     279A      2.005699   280A      2.014003   281A      2.031520  
     282A      2.038055   283A      2.048407   284A      2.067732  
     285A      2.083331   286A      2.091429   287A      2.105047  
     288A      2.130571   289A      2.138400   290A      2.163132  
     291A      2.196800   292A      2.221608   293A      2.229312  
     294A      2.252933   295A      2.257541   296A      2.294161  
     297A      2.313460   298A      2.328064   299A      2.341532  
     300A      2.377379   301A      2.437536   302A      2.477313  
     303A      2.518454   304A      2.527243   305A      2.528805  
     306A      2.543731   307A      2.569878   308A      2.596471  
     309A      2.619845   310A      2.643419   311A      2.670626  
     312A      2.738363   313A      2.746224   314A      2.782590  
     315A      2.786239   316A      2.794180   317A      2.810482  
     318A      2.815902   319A      2.832265   320A      2.838250  
     321A      2.851414   322A      2.881295   323A      2.910296  
     324A      2.918242   325A      2.928780   326A      2.940078  
     327A      2.967547   328A      2.973809   329A      3.000661  
     330A      3.039623   331A      3.048727   332A      3.058627  
     333A      3.085403   334A      3.098643   335A      3.107335  
     336A      3.135987   337A      3.163639   338A      3.205176  
     339A      3.296747   340A      3.306196   341A      3.323512  
     342A      3.371838   343A      3.423323   344A      3.428876  
     345A      3.429414   346A      3.480062   347A      3.535601  
     348A      3.545168   349A      3.602886   350A      3.633894  
     351A      3.656127   352A      3.691364   353A      3.713856  
     354A      3.782975   355A      3.802500   356A      3.809157  
     357A      3.845535   358A      3.852185   359A      3.858272  
     360A      3.902303   361A      3.915165   362A      3.964443  
     363A      3.975782   364A      4.006595   365A      4.029023  
     366A      4.078054   367A      4.116910   368A      4.173513  
     369A      4.262029   370A      4.310714   371A      4.371884  
     372A      4.531724   373A      4.827772   374A      4.892222  
     375A      4.917729   376A      5.000156   377A      5.148221  
     378A      5.154952   379A      5.211780   380A      5.332236  
     381A      5.343240   382A      5.841207   383A      5.886730  
     384A      6.436962   385A      6.469664   386A      6.540725  
     387A      6.582338   388A      6.671413   389A      6.867456  
     390A      8.088741   391A     17.433333   392A     17.627518  
     393A     17.666687   394A     23.636988   395A     23.747232  
     396A     23.972422   397A     24.002822   398A     24.015805  
     399A     24.034908   400A     24.040292   401A     24.133187  
     402A     24.191680   403A     24.281521   404A     35.759725  
     405A     50.145418   406A     50.163762   407A     66.891953  
     408A     66.975494   409A    189.349798  

    Final Occupation by Irrep:
              A 
    DOCC [    62 ]

  @DF-RKS Final Energy: -1188.33395193129513

   => Energetics <=

    Nuclear Repulsion Energy =           1191.3592034106438859
    One-Electron Energy =               -3997.5995656402346867
    Two-Electron Energy =                1707.6580293112260733
    DFT Exchange-Correlation Energy =     -89.7378482994579372
    Empirical Dispersion Energy =          -0.0137707134725849
    VV10 Nonlocal Energy =                  0.0000000000000000
    Total Energy =                      -1188.3339519312951325

Computation Completed


Properties will be evaluated at   0.000000,   0.000000,   0.000000 [a0]

Properties computed using the SCF density matrix

  Nuclear Dipole Moment: [e a0]
     X:    23.7203      Y:    -3.9152      Z:    -3.8607

  Electronic Dipole Moment: [e a0]
     X:   -20.6242      Y:     3.1371      Z:     3.5283

  Dipole Moment: [e a0]
     X:     3.0961      Y:    -0.7781      Z:    -0.3324     Total:     3.2096

  Dipole Moment: [D]
     X:     7.8694      Y:    -1.9778      Z:    -0.8449     Total:     8.1581


*** tstop() called on cpu-spot-dy-c5n2xlarge-1 at Tue Jun 22 07:23:06 2021
Module time:
	user time   =     641.66 seconds =      10.69 minutes
	system time =      10.66 seconds =       0.18 minutes
	total time  =         89 seconds =       1.48 minutes
Total time:
	user time   =     641.66 seconds =      10.69 minutes
	system time =      10.66 seconds =       0.18 minutes
	total time  =         89 seconds =       1.48 minutes


Properties will be evaluated at   0.000000,   0.000000,   0.000000 [a0]
OEProp: No title given, name of density matrix used for the following properties is 'SCF density'


  Wiberg Bond Indices using Orthogonal Lowdin Orbitals:

  Irrep: 1 Size: 23 x 23

                 1                   2                   3                   4                   5

    1     0.00000000000000     1.31882029739212     0.10090009804915     0.01327814549470     0.01303506764376
    2     1.31882029739212     0.00000000000000     0.88423832733375     0.11109180468431     0.11092851046468
    3     0.10090009804915     0.88423832733375     0.00000000000000     1.35978195858083     1.36138190578312
    4     0.01327814549470     0.11109180468431     1.35978195858083     0.00000000000000     0.13789270979776
    5     0.01303506764376     0.11092851046468     1.36138190578312     0.13789270979776     0.00000000000000
    6     0.03438823123873     0.07404004690499     0.89670838018649     0.10872193444894     0.10857931200134
    7     0.11864540093797     0.03620952769836     0.09962100171326     0.01342176759548     0.01326646020152
    8     0.01514619293041     0.00372932884581     0.01332885416160     0.00193601893827     0.00192912577141
    9     0.01471837571312     0.00557295572588     0.00251140289767     0.00037343598293     0.00037438107719
   10     0.01730418799888     0.00304681692030     0.00149372314107     0.00044480513900     0.00042716048950
   11     0.13211057661449     0.02588891848371     0.00430387021273     0.00057771416910     0.00056935947670
   12     1.19001704857529     0.09694402181751     0.03120578886038     0.00458505066960     0.00444756431239
   13     0.00265483940901     0.00094972372907     0.00073853299648     0.00027807349459     0.00026577034799
   14     0.00068486981174     0.00011431430146     0.00007959942291     0.00001758600627     0.00001688766590
   15     0.24779685556944     2.29142380672019     0.15041541810566     0.03923980374416     0.03961105699188
   16     0.00521270490711     0.01588535144392     0.16012508294800     0.04236429186948     0.04265035323198
   17     0.00071885388134     0.00023026279207     0.00051153855623     0.00006899867848     0.00007028444592
   18     0.00128196544192     0.00048055235202     0.00206950335998     0.00030349934301     0.00030783659069
   19     0.91374142198917     0.07330045215159     0.01372672008872     0.00169327701233     0.00171168046094
   20     0.02346938685253     0.00231878706839     0.00072608870631     0.00010856659203     0.00010965824689
   21     0.00019619298896     0.00003193312744     0.00002990034833     0.00000820478690     0.00000962381159
   22     0.00019420752255     0.00003262497783     0.00002853661992     0.00000920614642     0.00000751489620
   23     0.00005269202469     0.00001222401645     0.00001035346308     0.00000127150026     0.00000148993149

                 6                   7                   8                   9                  10

    1     0.03438823123873     0.11864540093797     0.01514619293041     0.01471837571312     0.01730418799888
    2     0.07404004690499     0.03620952769836     0.00372932884581     0.00557295572588     0.00304681692030
    3     0.89670838018649     0.09962100171326     0.01332885416160     0.00251140289767     0.00149372314107
    4     0.10872193444894     0.01342176759548     0.00193601893827     0.00037343598293     0.00044480513900
    5     0.10857931200134     0.01326646020152     0.00192912577141     0.00037438107719     0.00042716048950
    6     0.00000000000000     1.07013769378137     0.11854147296356     0.02046408077329     0.01506598176196
    7     1.07013769378137     0.00000000000000     1.31716410806125     0.13155080241084     0.10674404525331
    8     0.11854147296356     1.31716410806125     0.00000000000000     1.53637740847772     0.13575284520480
    9     0.02046408077329     0.13155080241084     1.53637740847772     0.00000000000000     1.36294119377643
   10     0.01506598176196     0.10674404525331     0.13575284520480     1.36294119377643     0.00000000000000
   11     0.01603300939757     0.11939572378133     0.11671145417171     0.12508129109586     1.42372019376220
   12     0.11681891572411     1.29482905056054     0.12377847017475     0.11068888433648     0.12962709017153
   13     0.00661973536380     0.02201593801377     0.02907489063387     0.16906397595824     1.31260834942215
   14     0.00034932066969     0.00165378450858     0.00329216211727     0.01847082521599     0.08417285311162
   15     0.01525435207168     0.00954067468739     0.00107494202770     0.00478189936682     0.00198404250387
   16     2.31194828779249     0.16648235505990     0.07268083045942     0.00604539265854     0.01623080812352
   17     0.00151503464068     0.01279598032920     0.08391762671795     0.86413184256491     0.07648094868365
   18     0.02002488230933     0.07599611475979     0.85265347173414     0.08178782736303     0.01253106787486
   19     0.00259081206915     0.01265378690213     0.00169873117822     0.00130500311766     0.00193094783905
   20     0.00167086442227     0.01104982804289     0.00533961587930     0.01199969652764     0.07347433872316
   21     0.00019789114418     0.00079124233819     0.00062371887718     0.00194759151681     0.01335850854690
   22     0.00018057745837     0.00076168956358     0.00068472232765     0.00196899961504     0.01500509744869
   23     0.00002957529868     0.00016797434090     0.00046095703145     0.00191666572103     0.01260588786755

                11                  12                  13                  14                  15

    1     0.13211057661449     1.19001704857529     0.00265483940901     0.00068486981174     0.24779685556944
    2     0.02588891848371     0.09694402181751     0.00094972372907     0.00011431430146     2.29142380672019
    3     0.00430387021273     0.03120578886038     0.00073853299648     0.00007959942291     0.15041541810566
    4     0.00057771416910     0.00458505066960     0.00027807349459     0.00001758600627     0.03923980374416
    5     0.00056935947670     0.00444756431239     0.00026577034799     0.00001688766590     0.03961105699188
    6     0.01603300939757     0.11681891572411     0.00661973536380     0.00034932066969     0.01525435207168
    7     0.11939572378133     1.29482905056054     0.02201593801377     0.00165378450858     0.00954067468739
    8     0.11671145417171     0.12377847017475     0.02907489063387     0.00329216211727     0.00107494202770
    9     0.12508129109586     0.11068888433648     0.16906397595824     0.01847082521599     0.00478189936682
   10     1.42372019376220     0.12962709017153     1.31260834942215     0.08417285311162     0.00198404250387
   11     0.00000000000000     1.36287488908033     0.15668246009548     0.04880182867596     0.01171293668879
   12     1.36287488908033     0.00000000000000     0.02329672058236     0.00435190868095     0.03063560968714
   13     0.15668246009548     0.02329672058236     0.00000000000000     1.24440777302217     0.00062783959456
   14     0.04880182867596     0.00435190868095     1.24440777302217     0.00000000000000     0.00004375230898
   15     0.01171293668879     0.03063560968714     0.00062783959456     0.00004375230898     0.00000000000000
   16     0.00501396114999     0.04473252645000     0.00678388037496     0.00031209249991     0.00558511699475
   17     0.01272479780506     0.00534993100060     0.03182025255573     0.00246407721065     0.00017414185086
   18     0.00520916609431     0.01180465011703     0.00189107266724     0.00047547334721     0.00019096475199
   19     0.02033104513330     0.06553196923281     0.00033844665554     0.00021479507132     0.02881040626902
   20     0.84590492724485     0.07710481231013     0.02140099952530     0.02281953274652     0.00065121961370
   21     0.01415531963866     0.00098042860271     0.06488314058071     0.93975897314902     0.00001597539302
   22     0.01453835554079     0.00101978458991     0.06323963870366     0.93896604476055     0.00001907088946
   23     0.00322712531995     0.00032693964533     0.07391675776539     0.94102145489415     0.00000529694810

                16                  17                  18                  19                  20

    1     0.00521270490711     0.00071885388134     0.00128196544192     0.91374142198917     0.02346938685253
    2     0.01588535144392     0.00023026279207     0.00048055235202     0.07330045215159     0.00231878706839
    3     0.16012508294800     0.00051153855623     0.00206950335998     0.01372672008872     0.00072608870631
    4     0.04236429186948     0.00006899867848     0.00030349934301     0.00169327701233     0.00010856659203
    5     0.04265035323198     0.00007028444592     0.00030783659069     0.00171168046094     0.00010965824689
    6     2.31194828779249     0.00151503464068     0.02002488230933     0.00259081206915     0.00167086442227
    7     0.16648235505990     0.01279598032920     0.07599611475979     0.01265378690213     0.01104982804289
    8     0.07268083045942     0.08391762671795     0.85265347173414     0.00169873117822     0.00533961587930
    9     0.00604539265854     0.86413184256491     0.08178782736303     0.00130500311766     0.01199969652764
   10     0.01623080812352     0.07648094868365     0.01253106787486     0.00193094783905     0.07347433872316
   11     0.00501396114999     0.01272479780506     0.00520916609431     0.02033104513330     0.84590492724485
   12     0.04473252645000     0.00534993100060     0.01180465011703     0.06553196923281     0.07710481231013
   13     0.00678388037496     0.03182025255573     0.00189107266724     0.00033844665554     0.02140099952530
   14     0.00031209249991     0.00246407721065     0.00047547334721     0.00021479507132     0.02281953274652
   15     0.00558511699475     0.00017414185086     0.00019096475199     0.02881040626902     0.00065121961370
   16     0.00000000000000     0.00038194358106     0.02098840326717     0.00053951290750     0.00058791936178
   17     0.00038194358106     0.00000000000000     0.01020399548243     0.00010797327490     0.00117943277490
   18     0.02098840326717     0.01020399548243     0.00000000000000     0.00060362928594     0.00045177993732
   19     0.00053951290750     0.00010797327490     0.00060362928594     0.00000000000000     0.00656128409527
   20     0.00058791936178     0.00117943277490     0.00045177993732     0.00656128409527     0.00000000000000
   21     0.00020961317449     0.00040975592399     0.00006357827134     0.00006157151739     0.00687478626097
   22     0.00019790226169     0.00037891406848     0.00006954518871     0.00005593664059     0.00619984585726
   23     0.00002698730539     0.00029262499879     0.00007519391292     0.00001989460956     0.00147067849880

                21                  22                  23

    1     0.00019619298896     0.00019420752255     0.00005269202469
    2     0.00003193312744     0.00003262497783     0.00001222401645
    3     0.00002990034833     0.00002853661992     0.00001035346308
    4     0.00000820478690     0.00000920614642     0.00000127150026
    5     0.00000962381159     0.00000751489620     0.00000148993149
    6     0.00019789114418     0.00018057745837     0.00002957529868
    7     0.00079124233819     0.00076168956358     0.00016797434090
    8     0.00062371887718     0.00068472232765     0.00046095703145
    9     0.00194759151681     0.00196899961504     0.00191666572103
   10     0.01335850854690     0.01500509744869     0.01260588786755
   11     0.01415531963866     0.01453835554079     0.00322712531995
   12     0.00098042860271     0.00101978458991     0.00032693964533
   13     0.06488314058071     0.06323963870366     0.07391675776539
   14     0.93975897314902     0.93896604476055     0.94102145489415
   15     0.00001597539302     0.00001907088946     0.00000529694810
   16     0.00020961317449     0.00019790226169     0.00002698730539
   17     0.00040975592399     0.00037891406848     0.00029262499879
   18     0.00006357827134     0.00006954518871     0.00007519391292
   19     0.00006157151739     0.00005593664059     0.00001989460956
   20     0.00687478626097     0.00619984585726     0.00147067849880
   21     0.00000000000000     0.03725465126109     0.04189326831907
   22     0.03725465126109     0.00000000000000     0.04198480454897
   23     0.04189326831907     0.04198480454897     0.00000000000000



  Atomic Valences: 

 #  #
 Irrep: 1
      1:  4.1643676
      2:  5.0552906
      3:  5.0839366
      4:  1.8361981
      5:  1.8375937
      6:  4.9398804
      7:  4.6348950
      8:  4.4358969
      9:  4.4740739
     10:  4.8169509
     11:  4.4655689
     12:  4.7309521
     13:  3.2335588
     14:  4.2524899
     15:  2.8795952
     16:  2.9249853
     17:  1.1059292
     18:  1.0994642
     19:  1.1475293
     20:  1.1214740
     21:  1.1237559
     22:  1.1227977
     23:  1.1195201


    Psi4 stopped on: Tuesday, 22 June 2021 07:23AM
    Psi4 wall time for execution: 0:01:28.71

*** Psi4 exiting successfully. Buy a developer a beer!
