
    -----------------------------------------------------------------------
          Psi4: An Open-Source Ab Initio Electronic Structure Package
                               Psi4 1.3.2 release

                         Git: Rev {HEAD} ecbda83 


    R. M. Parrish, L. A. Burns, D. G. A. Smith, A. C. Simmonett,
    A. E. DePrince III, E. G. Hohenstein, U. Bozkaya, A. Yu. Sokolov,
    R. Di Remigio, R. M. Richard, J. F. Gonthier, A. M. James,
    H. R. McAlexander, A. Kumar, M. Saitow, X. Wang, B. P. Pritchard,
    P. Verma, H. F. Schaefer III, K. Patkowski, R. A. King, E. F. Valeev,
    F. A. Evangelista, J. M. Turney, T. D. Crawford, and C. D. Sherrill,
    J. Chem. Theory Comput. 13(7) pp 3185--3197 (2017).
    (doi: 10.1021/acs.jctc.7b00174)


                         Additional Contributions by
    P. Kraus, H. Kruse, M. H. Lechner, M. C. Schieber, R. A. Shaw,
    A. Alenaizan, R. Galvelis, Z. L. Glick, S. Lehtola, and J. P. Misiewicz

    -----------------------------------------------------------------------


    Psi4 started on: Tuesday, 22 June 2021 02:18AM

    Process ID: 22101
    Host:       cpu-spot-dy-c5n2xlarge-1
    PSIDATADIR: /fsx/users/francis/anaconda3/envs/poltype-dev/share/psi4
    Memory:     500.0 MiB
    Threads:    1
    
  ==> Input File <==

--------------------------------------------------------------------------
molecule { 
0 1
 N   -1.073800   -1.487997    0.150288
 C   -2.377636   -1.143267    0.391295
 C   -2.684518    0.390165    0.437560
 F   -3.622631    0.653286   -0.535382
 F   -3.247604    0.662837    1.664244
 C   -1.480625    1.372755    0.227295
 C   -0.146781    0.780340   -0.025198
 C    0.973032    1.615736   -0.230602
 C    2.243938    1.076026   -0.467551
 C    2.429421   -0.333001   -0.511241
 C    1.309450   -1.166431   -0.295900
 C    0.031687   -0.629937   -0.059292
 S    3.972534   -1.177443   -0.764938
 C    5.253688    0.104360   -0.821985
 O   -3.225965   -2.008689    0.552267
 O   -1.653313    2.587242    0.269847
 H    3.073971    1.765493   -0.614027
 H    0.823102    2.695427   -0.197778
 H   -0.941215   -2.489867    0.130823
 H    1.438155   -2.249982   -0.307305
 H    5.104142    0.729362   -1.707820
 H    5.206219    0.712171    0.086943
 H    6.232779   -0.380645   -0.882506
}
set optking { 
  frozen_dihedral = ("
    11 10 13 14
    9 10 13 14
    21 14 13 10
  ")
}
set {
  geom_maxiter 400
  g_convergence GAU_LOOSE
  dynamic_level 1
}
memory 16GB
set_num_threads(8)
psi4_io.set_default_path("/scratch/Psi4-ligand")
for _ in range(1):
  try:
    set opt_coordinates both
    optimize('wb97x-d/6-31+G*')
    break
  except OptimizationConvergenceError:
    break
  else:
    try:
      set opt_coordinates cartesian
      optimize('wb97x-d/6-31+G*')
      break
    except OptimizationConvergenceError:
      pass
clean()
--------------------------------------------------------------------------

  Memory set to  14.901 GiB by Python driver.
  Threads set to 8 by Python driver.
gradient() will perform analytic gradient computation.

*** tstart() called on cpu-spot-dy-c5n2xlarge-1
*** at Tue Jun 22 02:18:13 2021

   => Loading Basis Set <=

    Name: 6-31+G*
    Role: ORBITAL
    Keyword: BASIS
    atoms 1             entry N          line   138 file /fsx/users/francis/anaconda3/envs/poltype-dev/share/psi4/basis/6-31pgs.gbs 
    atoms 2-3, 6-12, 14 entry C          line   119 file /fsx/users/francis/anaconda3/envs/poltype-dev/share/psi4/basis/6-31pgs.gbs 
    atoms 4-5           entry F          line   176 file /fsx/users/francis/anaconda3/envs/poltype-dev/share/psi4/basis/6-31pgs.gbs 
    atoms 13            entry S          line   344 file /fsx/users/francis/anaconda3/envs/poltype-dev/share/psi4/basis/6-31pgs.gbs 
    atoms 15-16         entry O          line   157 file /fsx/users/francis/anaconda3/envs/poltype-dev/share/psi4/basis/6-31pgs.gbs 
    atoms 17-23         entry H          line    46 file /fsx/users/francis/anaconda3/envs/poltype-dev/share/psi4/basis/6-31pgs.gbs 


         ---------------------------------------------------------
                                   SCF
               by Justin Turney, Rob Parrish, Andy Simmonett
                          and Daniel G. A. Smith
                              RKS Reference
                        8 Threads,  15258 MiB Core
         ---------------------------------------------------------

  ==> Geometry <==

    Molecular point group: c1
    Full point group: C1

    Geometry (in Angstrom), charge = 0, multiplicity = 1:

       Center              X                  Y                   Z               Mass       
    ------------   -----------------  -----------------  -----------------  -----------------
         N           -1.037289600490    -1.493615331407     0.181324403942    14.003074004430
         C           -2.341125600490    -1.148885331407     0.422331403942    12.000000000000
         C           -2.648007600490     0.384546668593     0.468596403942    12.000000000000
         F           -3.586120600490     0.647667668593    -0.504345596058    18.998403162730
         F           -3.211093600490     0.657218668593     1.695280403942    18.998403162730
         C           -1.444114600490     1.367136668593     0.258331403942    12.000000000000
         C           -0.110270600490     0.774721668593     0.005838403942    12.000000000000
         C            1.009542399510     1.610117668593    -0.199565596058    12.000000000000
         C            2.280448399510     1.070407668593    -0.436514596058    12.000000000000
         C            2.465931399510    -0.338619331407    -0.480204596058    12.000000000000
         C            1.345960399510    -1.172049331407    -0.264863596058    12.000000000000
         C            0.068197399510    -0.635555331407    -0.028255596058    12.000000000000
         S            4.009044399510    -1.183061331407    -0.733901596058    31.972071174400
         C            5.290198399510     0.098741668593    -0.790948596058    12.000000000000
         O           -3.189454600490    -2.014307331407     0.583303403942    15.994914619570
         O           -1.616802600490     2.581623668593     0.300883403942    15.994914619570
         H            3.110481399510     1.759874668593    -0.582990596058     1.007825032230
         H            0.859612399510     2.689808668593    -0.166741596058     1.007825032230
         H           -0.904704600490    -2.495485331407     0.161859403942     1.007825032230
         H            1.474665399510    -2.255600331407    -0.276268596058     1.007825032230
         H            5.140652399510     0.723743668593    -1.676783596058     1.007825032230
         H            5.242729399510     0.706552668593     0.117979403942     1.007825032230
         H            6.269289399510    -0.386263331407    -0.851469596058     1.007825032230

  Running in c1 symmetry.

  Rotational constants: A =      0.03853  B =      0.00810  C =      0.00696 [cm^-1]
  Rotational constants: A =   1155.10451  B =    242.69420  C =    208.72628 [MHz]
  Nuclear repulsion = 1174.420580149285570

  Charge       = 0
  Multiplicity = 1
  Electrons    = 124
  Nalpha       = 62
  Nbeta        = 62

  ==> Algorithm <==

  SCF Algorithm Type is DF.
  DIIS enabled.
  MOM disabled.
  Fractional occupation disabled.
  Guess Type is SAD.
  Energy threshold   = 1.00e-08
  Density threshold  = 1.00e-08
  Integral threshold = 0.00e+00

  ==> Primary Basis <==

  Basis Set: 6-31+G*
    Blend: 6-31+G*
    Number of shells: 144
    Number of basis function: 322
    Number of Cartesian functions: 322
    Spherical Harmonics?: false
    Max angular momentum: 2

  ==> DFT Potential <==

   => Composite Functional: WB97X-D <= 

    wB97X-D Hyb-GGA Exchange-Correlation Functional

    J.-D. Chai and M. Head-Gordon, Phys. Chem. Chem. Phys. 10, 6615 (2008)

    Deriv               =              1
    GGA                 =           TRUE
    Meta                =          FALSE

    Exchange Hybrid     =           TRUE
    MP2 Hybrid          =          FALSE

   => Exchange-Correlation Functionals <=

    1.0000   wB97D range-separated functional

   => Exact (HF) Exchange <=

    0.7780            HF,LR [omega = 0.2000]
    0.2220               HF 

   => Molecular Quadrature <=

    Radial Scheme          =       TREUTLER
    Pruning Scheme         =           FLAT
    Nuclear Scheme         =       TREUTLER

    BS radius alpha        =              1
    Pruning alpha          =              1
    Radial Points          =             75
    Spherical Points       =            302
    Total Points           =         520855
    Total Blocks           =           3884
    Max Points             =            256
    Max Functions          =            288

   => WB97X-D: Empirical Dispersion <=

    Chai and Head-Gordon Dispersion Correction
    Chai, J.-D.; Head-Gordon, M. (2010), J. Chem. Phys., 132: 6615-6620

        s6 =       1.000000

   => Loading Basis Set <=

    Name: (6-31+G* AUX)
    Role: JKFIT
    Keyword: DF_BASIS_SCF
    atoms 1             entry N          line   252 file /fsx/users/francis/anaconda3/envs/poltype-dev/share/psi4/basis/heavy-aug-cc-pvdz-jkfit.gbs 
    atoms 2-3, 6-12, 14 entry C          line   194 file /fsx/users/francis/anaconda3/envs/poltype-dev/share/psi4/basis/heavy-aug-cc-pvdz-jkfit.gbs 
    atoms 4-5           entry F          line   368 file /fsx/users/francis/anaconda3/envs/poltype-dev/share/psi4/basis/heavy-aug-cc-pvdz-jkfit.gbs 
    atoms 13            entry S          line   730 file /fsx/users/francis/anaconda3/envs/poltype-dev/share/psi4/basis/heavy-aug-cc-pvdz-jkfit.gbs 
    atoms 15-16         entry O          line   310 file /fsx/users/francis/anaconda3/envs/poltype-dev/share/psi4/basis/heavy-aug-cc-pvdz-jkfit.gbs 
    atoms 17-23         entry H          line   116 file /fsx/users/francis/anaconda3/envs/poltype-dev/share/psi4/basis/heavy-aug-cc-pvdz-jkfit.gbs 

  ==> Pre-Iterations <==

   -------------------------------------------------------
    Irrep   Nso     Nmo     Nalpha   Nbeta   Ndocc  Nsocc
   -------------------------------------------------------
     A        322     322       0       0       0       0
   -------------------------------------------------------
    Total     322     322      62      62      62       0
   -------------------------------------------------------

  ==> Integral Setup <==

  ==> DiskDFJK: Density-Fitted J/K Matrices <==

    J tasked:                  Yes
    K tasked:                  Yes
    wK tasked:                 Yes
    Omega:               2.000E-01
    OpenMP threads:              8
    Integrals threads:           8
    Memory [MiB]:             8459
    Algorithm:                Core
    Integral Cache:           NONE
    Schwarz Cutoff:          1E-12
    Fitting Condition:       1E-10

   => Auxiliary Basis Set <=

  Basis Set: (6-31+G* AUX)
    Blend: HEAVY-AUG-CC-PVDZ-JKFIT
    Number of shells: 523
    Number of basis function: 1840
    Number of Cartesian functions: 1840
    Spherical Harmonics?: false
    Max angular momentum: 3

  Cached 100.0% of DFT collocation blocks in 2.914 [GiB].

  Minimum eigenvalue in the overlap matrix is 5.0270223834E-07.
  Using Symmetric Orthogonalization.

  SCF Guess: Superposition of Atomic Densities via on-the-fly atomic UHF.

  ==> Iterations <==

                           Total Energy        Delta E     RMS |[F,P]|

   @DF-RKS iter SAD: -1187.21114847719900   -1.18721e+03   0.00000e+00 
   @DF-RKS iter   1: -1187.53824847806959   -3.27100e-01   3.40130e-03 DIIS
   @DF-RKS iter   2: -1187.54913826613097   -1.08898e-02   3.70509e-03 DIIS
   @DF-RKS iter   3: -1188.08798526723240   -5.38847e-01   7.83485e-04 DIIS
   @DF-RKS iter   4: -1188.11217748460308   -2.41922e-02   2.67169e-04 DIIS
   @DF-RKS iter   5: -1188.11569907618878   -3.52159e-03   7.20374e-05 DIIS
   @DF-RKS iter   6: -1188.11609834318983   -3.99267e-04   2.36637e-05 DIIS
   @DF-RKS iter   7: -1188.11615887548805   -6.05323e-05   1.02299e-05 DIIS
   @DF-RKS iter   8: -1188.11617521773360   -1.63422e-05   3.93430e-06 DIIS
   @DF-RKS iter   9: -1188.11617803062791   -2.81289e-06   2.15323e-06 DIIS
   @DF-RKS iter  10: -1188.11617837736321   -3.46735e-07   7.22958e-07 DIIS
   @DF-RKS iter  11: -1188.11617842734472   -4.99815e-08   3.20349e-07 DIIS
   @DF-RKS iter  12: -1188.11617843753447   -1.01898e-08   1.47779e-07 DIIS
   @DF-RKS iter  13: -1188.11617844003285   -2.49838e-09   5.66634e-08 DIIS
   @DF-RKS iter  14: -1188.11617844031821   -2.85354e-10   2.44270e-08 DIIS
   @DF-RKS iter  15: -1188.11617844037255   -5.43423e-11   1.16376e-08 DIIS
   @DF-RKS iter  16: -1188.11617844038437   -1.18234e-11   6.23285e-09 DIIS
  Energy and wave function converged.


  ==> Post-Iterations <==

    Orbital Energies [Eh]
    ---------------------

    Doubly Occupied:                                                      

       1A    -89.085961     2A    -24.873287     3A    -24.872759  
       4A    -19.304891     5A    -19.293317     6A    -14.542255  
       7A    -10.510194     8A    -10.458105     9A    -10.435241  
      10A    -10.411062    11A    -10.393609    12A    -10.358964  
      13A    -10.355351    14A    -10.352923    15A    -10.352698  
      16A    -10.347269    17A     -8.103311    18A     -6.054044  
      19A     -6.049513    20A     -6.043471    21A     -1.381390  
      22A     -1.325041    23A     -1.188681    24A     -1.174580  
      25A     -1.091713    26A     -0.999421    27A     -0.940807  
      28A     -0.904134    29A     -0.885812    30A     -0.869253  
      31A     -0.797870    32A     -0.763448    33A     -0.750419  
      34A     -0.744091    35A     -0.693159    36A     -0.678377  
      37A     -0.665632    38A     -0.644035    39A     -0.627797  
      40A     -0.589161    41A     -0.583316    42A     -0.564528  
      43A     -0.561765    44A     -0.556071    45A     -0.553346  
      46A     -0.552556    47A     -0.548738    48A     -0.535792  
      49A     -0.522859    50A     -0.516112    51A     -0.506470  
      52A     -0.498651    53A     -0.490733    54A     -0.485635  
      55A     -0.474626    56A     -0.438848    57A     -0.430055  
      58A     -0.395693    59A     -0.395005    60A     -0.367467  
      61A     -0.339516    62A     -0.318669  

    Virtual:                                                              

      63A     -0.046540    64A      0.011613    65A      0.039379  
      66A      0.047368    67A      0.052163    68A      0.064933  
      69A      0.066663    70A      0.074654    71A      0.080222  
      72A      0.088093    73A      0.092282    74A      0.094692  
      75A      0.104963    76A      0.111476    77A      0.114727  
      78A      0.116776    79A      0.118579    80A      0.133705  
      81A      0.136777    82A      0.138259    83A      0.145852  
      84A      0.148325    85A      0.155230    86A      0.161739  
      87A      0.172171    88A      0.173750    89A      0.177539  
      90A      0.180342    91A      0.182987    92A      0.189279  
      93A      0.192354    94A      0.196905    95A      0.203298  
      96A      0.205420    97A      0.214314    98A      0.217393  
      99A      0.219744   100A      0.227138   101A      0.234003  
     102A      0.238386   103A      0.239359   104A      0.244140  
     105A      0.245580   106A      0.247584   107A      0.254424  
     108A      0.261767   109A      0.264192   110A      0.272316  
     111A      0.276997   112A      0.284216   113A      0.284905  
     114A      0.288405   115A      0.297825   116A      0.300969  
     117A      0.306769   118A      0.314427   119A      0.316560  
     120A      0.326181   121A      0.329959   122A      0.332204  
     123A      0.335988   124A      0.341061   125A      0.354227  
     126A      0.360591   127A      0.361445   128A      0.373705  
     129A      0.379143   130A      0.387023   131A      0.392189  
     132A      0.394128   133A      0.395476   134A      0.402208  
     135A      0.411145   136A      0.417908   137A      0.433395  
     138A      0.439002   139A      0.444246   140A      0.448672  
     141A      0.461551   142A      0.472270   143A      0.476829  
     144A      0.484703   145A      0.505740   146A      0.511861  
     147A      0.525547   148A      0.528517   149A      0.532836  
     150A      0.556903   151A      0.576185   152A      0.579969  
     153A      0.585455   154A      0.594992   155A      0.606353  
     156A      0.626943   157A      0.655218   158A      0.663955  
     159A      0.670497   160A      0.694933   161A      0.727954  
     162A      0.743397   163A      0.754187   164A      0.758129  
     165A      0.769175   166A      0.773844   167A      0.788353  
     168A      0.797596   169A      0.802926   170A      0.813426  
     171A      0.822605   172A      0.838414   173A      0.861465  
     174A      0.878659   175A      0.882681   176A      0.897075  
     177A      0.912422   178A      0.922093   179A      0.925639  
     180A      0.931736   181A      0.962938   182A      0.968624  
     183A      0.978321   184A      0.986105   185A      1.012234  
     186A      1.025904   187A      1.043779   188A      1.052173  
     189A      1.057064   190A      1.080023   191A      1.087968  
     192A      1.101513   193A      1.119803   194A      1.152199  
     195A      1.156209   196A      1.172731   197A      1.202273  
     198A      1.210265   199A      1.213720   200A      1.218768  
     201A      1.235462   202A      1.248647   203A      1.271370  
     204A      1.279708   205A      1.282103   206A      1.321347  
     207A      1.322814   208A      1.335192   209A      1.341613  
     210A      1.395011   211A      1.402268   212A      1.408983  
     213A      1.414670   214A      1.417941   215A      1.443680  
     216A      1.449369   217A      1.452578   218A      1.466231  
     219A      1.466875   220A      1.485323   221A      1.511362  
     222A      1.517069   223A      1.527018   224A      1.531080  
     225A      1.557551   226A      1.592399   227A      1.621120  
     228A      1.649663   229A      1.663921   230A      1.670914  
     231A      1.709864   232A      1.749765   233A      1.755468  
     234A      1.758203   235A      1.759314   236A      1.760757  
     237A      1.772717   238A      1.780534   239A      1.789466  
     240A      1.821166   241A      1.838646   242A      1.865088  
     243A      1.874397   244A      1.896773   245A      1.901051  
     246A      1.910958   247A      1.919362   248A      1.947647  
     249A      1.963253   250A      1.966729   251A      1.972611  
     252A      2.005216   253A      2.039466   254A      2.048720  
     255A      2.057694   256A      2.058220   257A      2.081092  
     258A      2.090693   259A      2.100497   260A      2.113097  
     261A      2.146155   262A      2.152350   263A      2.167983  
     264A      2.200356   265A      2.205797   266A      2.210962  
     267A      2.248800   268A      2.258157   269A      2.264861  
     270A      2.269137   271A      2.303014   272A      2.308634  
     273A      2.310389   274A      2.344505   275A      2.349035  
     276A      2.367290   277A      2.380686   278A      2.403139  
     279A      2.462627   280A      2.465698   281A      2.510800  
     282A      2.514788   283A      2.569859   284A      2.625959  
     285A      2.657079   286A      2.677923   287A      2.705319  
     288A      2.735205   289A      2.736968   290A      2.769878  
     291A      2.778560   292A      2.827983   293A      2.832621  
     294A      2.850238   295A      2.899608   296A      2.946841  
     297A      2.960071   298A      3.029775   299A      3.124658  
     300A      3.155267   301A      3.211024   302A      3.233753  
     303A      3.338499   304A      3.379264   305A      3.463253  
     306A      3.487368   307A      4.035492   308A      4.279183  
     309A      4.328921   310A      4.335117   311A      4.361317  
     312A      4.377452   313A      4.416210   314A      4.469939  
     315A      4.486679   316A      4.521582   317A      4.580751  
     318A      4.780566   319A      4.835400   320A      5.116797  
     321A      5.696886   322A      7.147052  

    Final Occupation by Irrep:
              A 
    DOCC [    62 ]

  @DF-RKS Final Energy: -1188.11617844038437

   => Energetics <=

    Nuclear Repulsion Energy =           1174.4205801492855699
    One-Electron Energy =               -3962.9123351926109535
    Two-Electron Energy =                1689.8292512821453784
    DFT Exchange-Correlation Energy =     -89.4400810988133657
    Empirical Dispersion Energy =          -0.0135935803908385
    VV10 Nonlocal Energy =                  0.0000000000000000
    Total Energy =                      -1188.1161784403843740

Computation Completed


Properties will be evaluated at   0.000000,   0.000000,   0.000000 [a0]

Properties computed using the SCF density matrix

  Nuclear Dipole Moment: [e a0]
     X:    26.3654      Y:    -0.5589      Z:    -4.2088

  Electronic Dipole Moment: [e a0]
     X:   -23.1130      Y:     0.1963      Z:     3.6895

  Dipole Moment: [e a0]
     X:     3.2524      Y:    -0.3626      Z:    -0.5193     Total:     3.3135

  Dipole Moment: [D]
     X:     8.2668      Y:    -0.9217      Z:    -1.3199     Total:     8.4221


*** tstop() called on cpu-spot-dy-c5n2xlarge-1 at Tue Jun 22 02:19:28 2021
Module time:
	user time   =     564.79 seconds =       9.41 minutes
	system time =      10.36 seconds =       0.17 minutes
	total time  =         75 seconds =       1.25 minutes
Total time:
	user time   =     564.79 seconds =       9.41 minutes
	system time =      10.36 seconds =       0.17 minutes
	total time  =         75 seconds =       1.25 minutes

*** tstart() called on cpu-spot-dy-c5n2xlarge-1
*** at Tue Jun 22 02:19:28 2021


         ------------------------------------------------------------
                                   SCF GRAD                          
                          Rob Parrish, Justin Turney,                
                       Andy Simmonett, and Alex Sokolov              
         ------------------------------------------------------------

  ==> Geometry <==

    Molecular point group: c1
    Full point group: C1

    Geometry (in Angstrom), charge = 0, multiplicity = 1:

       Center              X                  Y                   Z               Mass       
    ------------   -----------------  -----------------  -----------------  -----------------
         N           -1.037289600490    -1.493615331407     0.181324403942    14.003074004430
         C           -2.341125600490    -1.148885331407     0.422331403942    12.000000000000
         C           -2.648007600490     0.384546668593     0.468596403942    12.000000000000
         F           -3.586120600490     0.647667668593    -0.504345596058    18.998403162730
         F           -3.211093600490     0.657218668593     1.695280403942    18.998403162730
         C           -1.444114600490     1.367136668593     0.258331403942    12.000000000000
         C           -0.110270600490     0.774721668593     0.005838403942    12.000000000000
         C            1.009542399510     1.610117668593    -0.199565596058    12.000000000000
         C            2.280448399510     1.070407668593    -0.436514596058    12.000000000000
         C            2.465931399510    -0.338619331407    -0.480204596058    12.000000000000
         C            1.345960399510    -1.172049331407    -0.264863596058    12.000000000000
         C            0.068197399510    -0.635555331407    -0.028255596058    12.000000000000
         S            4.009044399510    -1.183061331407    -0.733901596058    31.972071174400
         C            5.290198399510     0.098741668593    -0.790948596058    12.000000000000
         O           -3.189454600490    -2.014307331407     0.583303403942    15.994914619570
         O           -1.616802600490     2.581623668593     0.300883403942    15.994914619570
         H            3.110481399510     1.759874668593    -0.582990596058     1.007825032230
         H            0.859612399510     2.689808668593    -0.166741596058     1.007825032230
         H           -0.904704600490    -2.495485331407     0.161859403942     1.007825032230
         H            1.474665399510    -2.255600331407    -0.276268596058     1.007825032230
         H            5.140652399510     0.723743668593    -1.676783596058     1.007825032230
         H            5.242729399510     0.706552668593     0.117979403942     1.007825032230
         H            6.269289399510    -0.386263331407    -0.851469596058     1.007825032230

  Nuclear repulsion = 1174.420580149285570

  ==> Basis Set <==

  Basis Set: 6-31+G*
    Blend: 6-31+G*
    Number of shells: 144
    Number of basis function: 322
    Number of Cartesian functions: 322
    Spherical Harmonics?: false
    Max angular momentum: 2

  ==> DFJKGrad: Density-Fitted SCF Gradients <==

    Gradient:                    1
    J tasked:                  Yes
    K tasked:                  Yes
    wK tasked:                 Yes
    Omega:               2.000E-01
    OpenMP threads:              8
    Integrals threads:           8
    Memory [MiB]:            11444
    Schwarz Cutoff:          0E+00
    Fitting Condition:       1E-10

   => Auxiliary Basis Set <=

  Basis Set: (6-31+G* AUX)
    Blend: HEAVY-AUG-CC-PVDZ-JKFIT
    Number of shells: 523
    Number of basis function: 1840
    Number of Cartesian functions: 1840
    Spherical Harmonics?: false
    Max angular momentum: 3

  ==> DFT Potential <==

   => Composite Functional: WB97X-D <= 

    wB97X-D Hyb-GGA Exchange-Correlation Functional

    J.-D. Chai and M. Head-Gordon, Phys. Chem. Chem. Phys. 10, 6615 (2008)

    Deriv               =              1
    GGA                 =           TRUE
    Meta                =          FALSE

    Exchange Hybrid     =           TRUE
    MP2 Hybrid          =          FALSE

   => Exchange-Correlation Functionals <=

    1.0000   wB97D range-separated functional

   => Exact (HF) Exchange <=

    0.7780            HF,LR [omega = 0.2000]
    0.2220               HF 

   => Molecular Quadrature <=

    Radial Scheme          =       TREUTLER
    Pruning Scheme         =           FLAT
    Nuclear Scheme         =       TREUTLER

    BS radius alpha        =              1
    Pruning alpha          =              1
    Radial Points          =             75
    Spherical Points       =            302
    Total Points           =         520855
    Total Blocks           =           3884
    Max Points             =            256
    Max Functions          =            288


  -Total Gradient:
     Atom            X                  Y                   Z
    ------   -----------------  -----------------  -----------------
       1       -0.009517543422    -0.010824551297     0.001689387665
       2        0.008050100695     0.011482937494    -0.001307251872
       3        0.012477034332    -0.004039078356    -0.002941279506
       4       -0.012103092805     0.003472806687    -0.013119688571
       5       -0.007187399855     0.003713148735     0.016935201838
       6       -0.008790469368    -0.021804532972     0.001692357345
       7       -0.000495639545     0.007298813387     0.000085041453
       8       -0.003061486868     0.013697086532     0.000512457193
       9        0.005499756174     0.003028705716    -0.000381296962
      10        0.008373429474    -0.009829924697    -0.005733432702
      11        0.004627445321    -0.002710039990     0.000114980304
      12       -0.002248203970    -0.005901624439     0.000914667708
      13        0.003914147774     0.004633960008    -0.000282435650
      14        0.010044220790    -0.008114328949     0.000012246792
      15       -0.008577751964    -0.021580078135     0.001565699126
      16        0.005003604770     0.029218675919    -0.000695288119
      17        0.000750503132     0.003738304461     0.000237759735
      18       -0.000739203894     0.003853488376     0.000149407232
      19       -0.004045050121     0.001786434160     0.000826442203
      20        0.000393746404    -0.002500043290     0.000043078629
      21       -0.003121060815    -0.001197434667    -0.001514524341
      22       -0.002542367773    -0.000609333817     0.001381479917
      23        0.004059615192     0.002780518192    -0.000251454676


*** tstop() called on cpu-spot-dy-c5n2xlarge-1 at Tue Jun 22 02:19:51 2021
Module time:
	user time   =     145.45 seconds =       2.42 minutes
	system time =       3.69 seconds =       0.06 minutes
	total time  =         23 seconds =       0.38 minutes
Total time:
	user time   =     710.24 seconds =      11.84 minutes
	system time =      14.05 seconds =       0.23 minutes
	total time  =         98 seconds =       1.63 minutes

			-----------------------------------------
			 OPTKING 2.0: for geometry optimizations 
			  - R.A. King,  Bethel University        
			-----------------------------------------
	At level 1: Red. Int., RFO, no backsteps, dynamic trust

	Internal coordinates to be generated automatically.
	Detected frag 1 with atoms:  1 2 3 4 5 6 7 8 9 10 11 12 13 14 15 16 17 18 19 20
	 21 22 23
	---Fragment 1 Bond Connectivity---
	 1 : 2 12 19
	 2 : 1 3 15
	 3 : 2 4 5 6
	 4 : 3
	 5 : 3
	 6 : 3 7 16
	 7 : 6 8 12
	 8 : 7 9 18
	 9 : 8 10 17
	 10 : 9 11 13
	 11 : 10 12 20
	 12 : 1 7 11
	 13 : 10 14
	 14 : 13 21 22 23
	 15 : 2
	 16 : 6
	 17 : 9
	 18 : 8
	 19 : 1
	 20 : 11
	 21 : 14
	 22 : 14
	 23 : 14

	Assuming in current code that numbering for constraints corresponds to unified fragment.
	Frozen dihedral atom list: 
	    11    10    13    14
	     9    10    13    14
	    21    14    13    10
	---Fragment 1 Geometry and Gradient---
	 N          -1.9601932577       -2.8225239131        0.3426534633
	 C          -4.4240862102       -2.1710786259        0.7980906876
	 C          -5.0040091431        0.7266878861        0.8855188668
	 F          -6.7767857878        1.2239145140       -0.9530750491
	 F          -6.0680874681        1.2419632882        3.2036156693
	 C          -2.7289810887        2.5835138797        0.4881756031
	 C          -0.2083812346        1.4640117771        0.0110329845
	 C           1.9077586471        3.0426814234       -0.3771243206
	 C           4.3094229183        2.0227773362       -0.8248930363
	 C           4.6599349892       -0.6398977971       -0.9074551707
	 C           2.5434965308       -2.2148522419       -0.5005196572
	 C           0.1288744075       -1.2010255139       -0.0533953381
	 S           7.5759959399       -2.2356619060       -1.3868730196
	 C           9.9970261244        0.1865947108       -1.4946762259
	 O          -6.0271956845       -3.8064891889        1.1022836815
	 O          -3.0553141139        4.8785616926        0.5685872291
	 H           5.8779579634        3.3256811388       -1.1016925603
	 H           1.6244320091        5.0830017135       -0.3150959503
	 H          -1.7096439194       -4.7157838265        0.3058699443
	 H           2.7867137318       -4.2624668749       -0.5220719836
	 H           9.7144251413        1.3676773187       -3.1686617682
	 H           9.9073227150        1.3351910369        0.2229487619
	 H          11.8472399663       -0.7299319087       -1.6090443407
	            -0.0095175434       -0.0108245513        0.0016893877
	             0.0080501007        0.0114829375       -0.0013072519
	             0.0124770343       -0.0040390784       -0.0029412795
	            -0.0121030928        0.0034728067       -0.0131196886
	            -0.0071873999        0.0037131487        0.0169352018
	            -0.0087904694       -0.0218045330        0.0016923573
	            -0.0004956395        0.0072988134        0.0000850415
	            -0.0030614869        0.0136970865        0.0005124572
	             0.0054997562        0.0030287057       -0.0003812970
	             0.0083734295       -0.0098299247       -0.0057334327
	             0.0046274453       -0.0027100400        0.0001149803
	            -0.0022482040       -0.0059016244        0.0009146677
	             0.0039141478        0.0046339600       -0.0002824357
	             0.0100442208       -0.0081143289        0.0000122468
	            -0.0085777520       -0.0215800781        0.0015656991
	             0.0050036048        0.0292186759       -0.0006952881
	             0.0007505031        0.0037383045        0.0002377597
	            -0.0007392039        0.0038534884        0.0001494072
	            -0.0040450501        0.0017864342        0.0008264422
	             0.0003937464       -0.0025000433        0.0000430786
	            -0.0031210608       -0.0011974347       -0.0015145243
	            -0.0025423678       -0.0006093338        0.0013814799
	             0.0040596152        0.0027805182       -0.0002514547

	Previous optimization step data not found.  Starting new optimization.

	---Fragment 1 Intrafragment Coordinates---
	 - Coordinate -           - BOHR/RAD -       - ANG/DEG -
	 R(1,2)           =         2.588933	       1.370004
	 R(1,12)          =         2.674007	       1.415024
	 R(1,19)          =         1.910121	       1.010792
	 R(2,3)           =         2.956519	       1.564523
	 R(2,15)          =         2.310208	       1.222509
	 R(3,4)           =         2.601999	       1.376919
	 R(3,5)           =         2.602181	       1.377015
	 R(3,6)           =         2.963349	       1.568137
	 R(6,7)           =         2.798995	       1.481164
	 R(6,16)          =         2.319527	       1.227441
	 R(7,8)           =         2.668504	       1.412111
	 R(7,12)          =         2.687065	       1.421933
	 R(8,9)           =         2.647394	       1.400940
	 R(8,18)          =         2.060832	       1.090545
	 R(9,10)          =         2.686915	       1.421854
	 R(9,17)          =         2.057785	       1.088933
	 R(10,11)         =         2.669343	       1.412555
	 R(10,13)         =         3.358529	       1.777257
	 R(11,12)         =         2.656721	       1.405876
	 R(11,20)         =         2.062121	       1.091228
	 R(13,14)         =         3.426417	       1.813182
	 R(14,21)         =         2.068102	       1.094393
	 R(14,22)         =         2.068225	       1.094458
	 R(14,23)         =         2.067944	       1.094309
	 B(1,2,3)         =         2.024732	     116.008573
	 B(1,2,15)        =         2.100693	     120.360869
	 B(1,12,7)        =         2.094182	     119.987771
	 B(1,12,11)       =         2.098533	     120.237094
	 B(2,1,12)        =         2.235705	     128.096482
	 B(2,1,19)        =         1.958029	     112.186813
	 B(2,3,4)         =         1.875532	     107.460083
	 B(2,3,5)         =         1.876154	     107.495699
	 B(2,3,6)         =         2.048331	     117.360723
	 B(3,2,15)        =         2.157755	     123.630243
	 B(3,6,7)         =         2.052853	     117.619815
	 B(3,6,16)        =         2.102875	     120.485855
	 B(4,3,5)         =         1.889173	     108.241668
	 B(4,3,6)         =         1.884490	     107.973315
	 B(5,3,6)         =         1.885260	     108.017416
	 B(6,7,8)         =         2.097065	     120.153001
	 B(6,7,12)        =         2.110406	     120.917382
	 B(7,6,16)        =         2.127453	     121.894079
	 B(7,8,9)         =         2.113078	     121.070452
	 B(7,8,18)        =         2.062699	     118.183922
	 B(7,12,11)       =         2.090461	     119.774574
	 B(8,7,12)        =         2.075703	     118.929000
	 B(8,9,10)        =         2.100541	     120.352133
	 B(8,9,17)        =         2.060451	     118.055147
	 B(9,8,18)        =         2.107406	     120.745492
	 B(9,10,11)       =         2.067554	     118.462126
	 B(9,10,13)       =         2.200002	     126.050833
	 B(10,9,17)       =         2.122193	     121.592685
	 B(10,11,12)      =         2.118958	     121.407348
	 B(10,11,20)      =         2.083754	     119.390338
	 B(10,13,14)      =         1.856767	     106.384936
	 B(11,10,13)      =         2.015107	     115.457101
	 B(12,1,19)       =         2.089450	     119.716694
	 B(12,11,20)      =         2.080456	     119.201329
	 B(13,14,21)      =         1.909900	     109.429205
	 B(13,14,22)      =         1.913277	     109.622683
	 B(13,14,23)      =         1.897164	     108.699506
	 B(21,14,22)      =         1.927441	     110.434222
	 B(21,14,23)      =         1.907743	     109.305648
	 B(22,14,23)      =         1.908024	     109.321713
	 D(1,2,3,4)       =         2.110576	     120.927119
	 D(1,2,3,5)       =        -2.142640	    -122.764206
	 D(1,2,3,6)       =        -0.015273	      -0.875069
	 D(1,12,7,6)      =        -0.000504	      -0.028895
	 D(1,12,7,8)      =         3.136109	     179.685834
	 D(1,12,11,10)    =         3.139026	     179.852966
	 D(1,12,11,20)    =        -0.008910	      -0.510492
	 D(2,1,12,7)      =         0.005836	       0.334355
	 D(2,1,12,11)     =        -3.140520	    -179.938561
	 D(2,3,6,7)       =         0.019860	       1.137899
	 D(2,3,6,16)      =        -3.124853	    -179.040911
	 D(3,2,1,12)      =         0.002691	       0.154201
	 D(3,2,1,19)      =        -3.139575	    -179.884399
	 D(3,6,7,8)       =         3.134416	     179.588794
	 D(3,6,7,12)      =        -0.012216	      -0.699951
	 D(4,3,2,15)      =        -1.027457	     -58.868935
	 D(4,3,6,7)       =        -2.101350	    -120.398499
	 D(4,3,6,16)      =         1.037122	      59.422690
	 D(5,3,2,15)      =         1.002513	      57.439739
	 D(5,3,6,7)       =         2.142516	     122.757099
	 D(5,3,6,16)      =        -1.002198	     -57.421712
	 D(6,3,2,15)      =         3.129879	     179.328876
	 D(6,7,8,9)       =         3.138719	     179.835361
	 D(6,7,8,18)      =        -0.000567	      -0.032472
	 D(6,7,12,11)     =        -3.137356	    -179.757249
	 D(7,8,9,10)      =         0.004555	       0.260961
	 D(7,8,9,17)      =        -3.135869	    -179.672078
	 D(7,12,1,19)     =        -3.135039	    -179.624491
	 D(7,12,11,10)    =        -0.007319	      -0.419366
	 D(7,12,11,20)    =         3.127930	     179.217176
	 D(8,7,6,16)      =        -0.004009	      -0.229714
	 D(8,7,12,11)     =        -0.000742	      -0.042520
	 D(8,9,10,11)     =        -0.012273	      -0.703198
	 D(8,9,10,13)     =        -3.117429	    -178.615547
	 D(9,8,7,12)      =         0.002066	       0.118396
	 D(9,10,11,12)    =         0.013731	       0.786711
	 D(9,10,11,20)    =        -3.121507	    -178.849157
	*D(9,10,13,14)    =         0.075903	       4.348919
	 D(10,9,8,18)     =        -3.139404	    -179.874587
	*D(10,13,14,21)   =        -1.151568	     -65.980004
	 D(10,13,14,22)   =         0.964673	      55.271700
	 D(10,13,14,23)   =         3.049308	     174.712476
	 D(11,10,9,17)    =         3.128109	     179.227427
	*D(11,10,13,14)   =        -3.030213	    -173.618425
	 D(11,12,1,19)    =         0.001791	       0.102594
	 D(12,1,2,15)     =         3.140849	     179.957401
	 D(12,7,6,16)     =         3.132544	     179.481540
	 D(12,7,8,18)     =        -3.137220	    -179.749438
	 D(12,11,10,13)   =         3.122698	     178.917437
	 D(13,10,9,17)    =         0.022952	       1.315078
	 D(13,10,11,20)   =        -0.012539	      -0.718432
	 D(15,2,1,19)     =        -0.001417	      -0.081199
	 D(17,9,8,18)     =         0.003358	       0.192374

	Current energy   :     -1188.1161784404

	Generating empirical Hessian (Schlegel '84) for each fragment.
	Taking RFO optimization step.
	Going to follow RFO solution 1.
	Using RFO vector 1.
	Norm of target step-size    0.20926
	Projected energy change by RFO approximation:        -0.0133382129

	Back-transformation to cartesian coordinates...
	Successfully converged to displaced geometry.

	Back-transformation to cartesian coordinates to adjust frozen coordinates...
	Successfully converged to displaced geometry.

	--- Internal Coordinate Step in ANG or DEG, aJ/ANG or AJ/DEG ---
	 ---------------------------------------------------------------------------
	   Coordinate                Previous        Force       Change         New 
	   ----------                --------       ------       ------       ------
	    1 R(1,2)          =      1.370004    -0.007591    -0.000870     1.369134
	    2 R(1,12)         =      1.415024    -0.129770    -0.019077     1.395947
	    3 R(1,19)         =      1.010792     0.019321     0.002629     1.013421
	    4 R(2,3)          =      1.564523    -0.095604    -0.021232     1.543290
	    5 R(2,15)         =      1.222509    -0.176654    -0.011863     1.210647
	    6 R(3,4)          =      1.376919    -0.150009    -0.018878     1.358041
	    7 R(3,5)          =      1.377015    -0.154721    -0.019478     1.357537
	    8 R(3,6)          =      1.568137    -0.090315    -0.020432     1.547705
	    9 R(6,7)          =      1.481164    -0.079805    -0.014514     1.466651
	   10 R(6,16)         =      1.227441    -0.232419    -0.015961     1.211480
	   11 R(7,8)          =      1.412111    -0.108156    -0.015568     1.396543
	   12 R(7,12)         =      1.421933    -0.117511    -0.017971     1.403962
	   13 R(8,9)          =      1.400940    -0.138690    -0.019075     1.381865
	   14 R(8,18)         =      1.090545    -0.032478    -0.005776     1.084770
	   15 R(9,10)         =      1.421854    -0.142157    -0.020875     1.400979
	   16 R(9,17)         =      1.088933    -0.023826    -0.004215     1.084718
	   17 R(10,11)        =      1.412555    -0.107215    -0.015169     1.397386
	   18 R(10,13)        =      1.777257    -0.097652    -0.021361     1.755896
	   19 R(11,12)        =      1.405876    -0.140900    -0.019606     1.386270
	   20 R(11,20)        =      1.091228    -0.020664    -0.003683     1.087545
	   21 R(13,14)        =      1.813182    -0.006973    -0.001692     1.811490
	   22 R(14,21)        =      1.094393    -0.007995    -0.001439     1.092953
	   23 R(14,22)        =      1.094458    -0.007646    -0.001377     1.093081
	   24 R(14,23)        =      1.094309    -0.019627    -0.003532     1.090777
	   25 B(1,2,3)        =    116.008573    -0.000067    -0.072967   115.935606
	   26 B(1,2,15)       =    120.360869     0.000826     2.300925   122.661795
	   27 B(1,12,7)       =    119.987771     0.000217     0.432431   120.420202
	   28 B(1,12,11)      =    120.237094    -0.000394    -1.033309   119.203786
	   29 B(2,1,12)       =    128.096482    -0.000189    -0.672798   127.423684
	   30 B(2,1,19)       =    112.186813     0.000378     1.562683   113.749496
	   31 B(2,3,4)        =    107.460083    -0.000027    -0.135588   107.324495
	   32 B(2,3,5)        =    107.495699    -0.000024    -0.095190   107.400509
	   33 B(2,3,6)        =    117.360723     0.000073     0.495566   117.856289
	   34 B(3,2,15)       =    123.630243    -0.000760    -2.227688   121.402556
	   35 B(3,6,7)        =    117.619815    -0.000138    -0.353705   117.266110
	   36 B(3,6,16)       =    120.485855    -0.000743    -2.141208   118.344647
	   37 B(4,3,5)        =    108.241668    -0.000021    -0.259828   107.981840
	   38 B(4,3,6)        =    107.973315    -0.000006    -0.059601   107.913713
	   39 B(5,3,6)        =    108.017416    -0.000002    -0.003982   108.013434
	   40 B(6,7,8)        =    120.153001    -0.000051    -0.057114   120.095887
	   41 B(6,7,12)       =    120.917382     0.000104     0.172608   121.089991
	   42 B(7,6,16)       =    121.894079     0.000880     2.495157   124.389235
	   43 B(7,8,9)        =    121.070452     0.000063     0.168691   121.239144
	   44 B(7,8,18)       =    118.183922    -0.000013    -0.006768   118.177154
	   45 B(7,12,11)      =    119.774574     0.000178     0.599816   120.374390
	   46 B(8,7,12)       =    118.929000    -0.000052    -0.115488   118.813512
	   47 B(8,9,10)       =    120.352133    -0.000237    -0.747171   119.604962
	   48 B(8,9,17)       =    118.055147     0.000313     1.216207   119.271354
	   49 B(9,8,18)       =    120.745492    -0.000049    -0.161790   120.583701
	   50 B(9,10,11)      =    118.462126     0.000450     1.335844   119.797970
	   51 B(9,10,13)      =    126.050833    -0.000589    -1.707536   124.343297
	   52 B(10,9,17)      =    121.592685    -0.000076    -0.469604   121.123081
	   53 B(10,11,12)     =    121.407348    -0.000401    -1.244807   120.162540
	   54 B(10,11,20)     =    119.390338     0.000204     0.637337   120.027675
	   55 B(10,13,14)     =    106.384936    -0.001641    -4.685652   101.699284
	   56 B(11,10,13)     =    115.457101     0.000138     0.370752   115.827852
	   57 B(12,1,19)      =    119.716694    -0.000188    -0.889883   118.826811
	   58 B(12,11,20)     =    119.201329     0.000197     0.608390   119.809719
	   59 B(13,14,21)     =    109.429205     0.000479     2.240773   111.669978
	   60 B(13,14,22)     =    109.622683     0.000326     1.398639   111.021322
	   61 B(13,14,23)     =    108.699506    -0.000653    -3.133303   105.566204
	   62 B(21,14,22)     =    110.434222    -0.000205    -0.123071   110.311150
	   63 B(21,14,23)     =    109.305648     0.000052    -0.219250   109.086399
	   64 B(22,14,23)     =    109.321713    -0.000009    -0.287947   109.033766
	   65 D(1,2,3,4)      =    120.927119     0.000005     0.176501   121.103621
	   66 D(1,2,3,5)      =   -122.764206    -0.000006    -0.241687  -123.005893
	   67 D(1,2,3,6)      =     -0.875069     0.000001     0.021392    -0.853677
	   68 D(1,12,7,6)     =     -0.028895    -0.000001    -0.106017    -0.134912
	   69 D(1,12,7,8)     =    179.685834    -0.000001    -0.104623   179.581211
	   70 D(1,12,11,10)   =    179.852966    -0.000001    -0.067459   179.785508
	   71 D(1,12,11,20)   =     -0.510492     0.000001     0.202799    -0.307693
	   72 D(2,1,12,7)     =      0.334355     0.000000     0.026248     0.360603
	   73 D(2,1,12,11)    =   -179.938561    -0.000001    -0.162363  -180.100924
	   74 D(2,3,6,7)      =      1.137899    -0.000001    -0.094469     1.043431
	   75 D(2,3,6,16)     =   -179.040911     0.000000     0.053734  -178.987177
	   76 D(3,2,1,12)     =      0.154201    -0.000000     0.011213     0.165414
	   77 D(3,2,1,19)     =   -179.884399     0.000000     0.014308  -179.870091
	   78 D(3,6,7,8)      =    179.588794     0.000001     0.137617   179.726411
	   79 D(3,6,7,12)     =     -0.699951     0.000001     0.138874    -0.561077
	   80 D(4,3,2,15)     =    -58.868935     0.000004     0.046790   -58.822146
	   81 D(4,3,6,7)      =   -120.398499    -0.000004    -0.213637  -120.612136
	   82 D(4,3,6,16)     =     59.422690    -0.000002    -0.065434    59.357256
	   83 D(5,3,2,15)     =     57.439739    -0.000007    -0.371399    57.068341
	   84 D(5,3,6,7)      =    122.757099     0.000003     0.125320   122.882419
	   85 D(5,3,6,16)     =    -57.421712     0.000004     0.273523   -57.148189
	   86 D(6,3,2,15)     =    179.328876    -0.000001    -0.108320   179.220556
	   87 D(6,7,8,9)      =    179.835361     0.000001     0.071625   179.906986
	   88 D(6,7,8,18)     =     -0.032472    -0.000001    -0.072042    -0.104514
	   89 D(6,7,12,11)    =   -179.757249     0.000001     0.089294  -179.667955
	   90 D(7,8,9,10)     =      0.260961    -0.000001    -0.057187     0.203774
	   91 D(7,8,9,17)     =   -179.672078    -0.000004    -0.403550  -180.075628
	   92 D(7,12,1,19)    =   -179.624491    -0.000000     0.022189  -179.602302
	   93 D(7,12,11,10)   =     -0.419366    -0.000003    -0.256436    -0.675803
	   94 D(7,12,11,20)   =    179.217176    -0.000000     0.013821   179.230997
	   95 D(8,7,6,16)     =     -0.229714     0.000001    -0.011231    -0.240945
	   96 D(8,7,12,11)    =     -0.042520     0.000001     0.090688     0.048168
	   97 D(8,9,10,11)    =     -0.703198    -0.000003    -0.126381    -0.829579
	   98 D(8,9,10,13)    =   -178.615547    -0.000001    -0.105628  -178.721175
	   99 D(9,8,7,12)     =      0.118396     0.000001     0.069570     0.187966
	  100 D(9,10,11,12)   =      0.786711     0.000004     0.280507     1.067219
	  101 D(9,10,11,20)   =   -178.849157     0.000002     0.009781  -178.839376
	  102 *D(9,10,13,14)  =      4.348919     0.000000    -0.000000     4.348919
	  103 D(10,9,8,18)    =   -179.874587     0.000001     0.090137  -179.784450
	  104 *D(10,13,14,21) =    -65.980004     0.000000     0.000000   -65.980004
	  105 D(10,13,14,22)  =     55.271700     0.000058     2.310483    57.582183
	  106 D(10,13,14,23)  =    174.712476     0.000010     0.886600   175.599076
	  107 D(11,10,9,17)   =    179.227427     0.000001     0.227701   179.455128
	  108 *D(11,10,13,14) =   -173.618425    -0.000000     0.000000  -173.618425
	  109 D(11,12,1,19)   =      0.102594    -0.000002    -0.166422    -0.063829
	  110 D(12,1,2,15)    =    179.957401     0.000000     0.132752   180.090153
	  111 D(12,7,6,16)    =    179.481540     0.000000    -0.009973   179.471567
	  112 D(12,7,8,18)    =   -179.749438    -0.000001    -0.074097  -179.823535
	  113 D(12,11,10,13)  =    178.917437    -0.000001     0.215803   179.133240
	  114 D(13,10,9,17)   =      1.315078     0.000003     0.248454     1.563532
	  115 D(13,10,11,20)  =     -0.718432    -0.000003    -0.054924    -0.773356
	  116 D(15,2,1,19)    =     -0.081199     0.000000     0.135847     0.054648
	  117 D(17,9,8,18)    =      0.192374    -0.000003    -0.256226    -0.063852
	 ---------------------------------------------------------------------------
	Successfully symmetrized geometry.

  ==> Convergence Check <==

  Measures of convergence in internal coordinates in au.
  Criteria marked as inactive (o), active & met (*), and active & unmet ( ).
  --------------------------------------------------------------------------------------------- ~
   Step     Total Energy     Delta E     MAX Force     RMS Force      MAX Disp      RMS Disp    ~
  --------------------------------------------------------------------------------------------- ~
    Convergence Criteria             o    2.50e-03 *    1.70e-03 *    1.00e-02 *    6.70e-03 *  ~
  --------------------------------------------------------------------------------------------- ~
      1   -1188.11617844   -1.19e+03 o    2.82e-02      6.83e-03      8.18e-02      1.93e-02    ~
  ---------------------------------------------------------------------------------------------

	Writing optimization data to binary file.
	Structure for next step:
	Cartesian Geometry (in Angstrom)
	    N    -0.9527878624  -1.5460775152   0.1721226399
	    C    -2.2597478472  -1.2208460535   0.4183116408
	    C    -2.5821865355   0.2875807166   0.4675770447
	    F    -3.5171136402   0.5326385724  -0.4864315432
	    F    -3.1411924188   0.5439150278   1.6778297640
	    C    -1.4161436283   1.2835532455   0.2583555197
	    C    -0.0869963373   0.7181221038   0.0039546013
	    C     1.0063309731   1.5629946560  -0.1989225658
	    C     2.2692149066   1.0557882682  -0.4385419713
	    C     2.4608265744  -0.3312820760  -0.4839702692
	    C     1.3787713163  -1.1891594274  -0.2697494349
	    C     0.1147270969  -0.6707296989  -0.0348692906
	    S     4.0131445977  -1.1087615210  -0.7466557498
	    C     5.1350896064   0.3130719319  -0.7802139338
	    O    -3.1200721405  -2.0556551373   0.5874310826
	    O    -1.6559486105   2.4697657210   0.3138199843
	    H     3.0955625666   1.7412881587  -0.5929823867
	    H     0.8393042106   2.6342544292  -0.1638516692
	    H    -0.7787080339  -2.5440630870   0.1448587617
	    H     1.5269385318  -2.2664495733  -0.2854438450
	    H     4.9457840238   0.9562647547  -1.6433554134
	    H     5.0647607702   0.8899796069   0.1455599827
	    H     6.1382109962  -0.1074737332  -0.8619586470
			--------------------------
			 OPTKING Finished Execution 
			--------------------------

    Structure for next step:
    Molecular point group: c1
    Full point group: C1

    Geometry (in Angstrom), charge = 0, multiplicity = 1:

    N           -0.974641748625    -1.517274337341     0.173732702619
    C           -2.281601738520    -1.192042874348     0.419921704552
    C           -2.604040428147     0.316383901742     0.469187108553
    F           -3.538967536489     0.561441758436    -0.484821483072
    F           -3.163046313652     0.572718213916     1.679439832613
    C           -1.437997516304     1.312356434478     0.259965582794
    C           -0.108850220112     0.746925290621     0.005564663357
    C            0.984477094574     1.591797846087    -0.197312504566
    C            2.247361033005     1.084591456308    -0.436931910995
    C            2.438972701590    -0.302478893307    -0.482360209054
    C            1.356917439255    -1.160356248058    -0.268139373924
    C            0.092873214840    -0.641926517514    -0.033259228709
    S            3.991290731039    -1.079958341420    -0.745045690683
    C            5.113235744124     0.341875117130    -0.778603874854
    O           -3.141926035193    -2.026851961375     0.589041146938
    O           -1.677802499509     2.498568914716     0.315430047571
    H            3.073708696251     1.770091349529    -0.591372326981
    H            0.817450331420     2.663057623524    -0.162241607737
    H           -0.800561919434    -2.515259912991     0.146468824368
    H            1.505084655371    -2.237646398247    -0.283833784041
    H            4.923930160797     0.985067942460    -1.641745357756
    H            5.042906907624     0.918782794332     0.147170045370
    H            6.116357137885    -0.078670549606    -0.860348588361

gradient() will perform analytic gradient computation.

*** tstart() called on cpu-spot-dy-c5n2xlarge-1
*** at Tue Jun 22 02:19:52 2021

   => Loading Basis Set <=

    Name: 6-31+G*
    Role: ORBITAL
    Keyword: BASIS
    atoms 1             entry N          line   138 file /fsx/users/francis/anaconda3/envs/poltype-dev/share/psi4/basis/6-31pgs.gbs 
    atoms 2-3, 6-12, 14 entry C          line   119 file /fsx/users/francis/anaconda3/envs/poltype-dev/share/psi4/basis/6-31pgs.gbs 
    atoms 4-5           entry F          line   176 file /fsx/users/francis/anaconda3/envs/poltype-dev/share/psi4/basis/6-31pgs.gbs 
    atoms 13            entry S          line   344 file /fsx/users/francis/anaconda3/envs/poltype-dev/share/psi4/basis/6-31pgs.gbs 
    atoms 15-16         entry O          line   157 file /fsx/users/francis/anaconda3/envs/poltype-dev/share/psi4/basis/6-31pgs.gbs 
    atoms 17-23         entry H          line    46 file /fsx/users/francis/anaconda3/envs/poltype-dev/share/psi4/basis/6-31pgs.gbs 


         ---------------------------------------------------------
                                   SCF
               by Justin Turney, Rob Parrish, Andy Simmonett
                          and Daniel G. A. Smith
                              RKS Reference
                        8 Threads,  15258 MiB Core
         ---------------------------------------------------------

  ==> Geometry <==

    Molecular point group: c1
    Full point group: C1

    Geometry (in Angstrom), charge = 0, multiplicity = 1:

       Center              X                  Y                   Z               Mass       
    ------------   -----------------  -----------------  -----------------  -----------------
         N           -0.974641748625    -1.517274337341     0.173732702619    14.003074004430
         C           -2.281601738520    -1.192042874348     0.419921704552    12.000000000000
         C           -2.604040428147     0.316383901742     0.469187108553    12.000000000000
         F           -3.538967536489     0.561441758436    -0.484821483072    18.998403162730
         F           -3.163046313652     0.572718213916     1.679439832613    18.998403162730
         C           -1.437997516304     1.312356434478     0.259965582794    12.000000000000
         C           -0.108850220112     0.746925290621     0.005564663357    12.000000000000
         C            0.984477094574     1.591797846087    -0.197312504566    12.000000000000
         C            2.247361033005     1.084591456308    -0.436931910995    12.000000000000
         C            2.438972701590    -0.302478893307    -0.482360209054    12.000000000000
         C            1.356917439255    -1.160356248058    -0.268139373924    12.000000000000
         C            0.092873214840    -0.641926517514    -0.033259228709    12.000000000000
         S            3.991290731039    -1.079958341420    -0.745045690683    31.972071174400
         C            5.113235744124     0.341875117130    -0.778603874854    12.000000000000
         O           -3.141926035193    -2.026851961375     0.589041146938    15.994914619570
         O           -1.677802499509     2.498568914716     0.315430047571    15.994914619570
         H            3.073708696251     1.770091349529    -0.591372326981     1.007825032230
         H            0.817450331420     2.663057623524    -0.162241607737     1.007825032230
         H           -0.800561919434    -2.515259912991     0.146468824368     1.007825032230
         H            1.505084655371    -2.237646398247    -0.283833784041     1.007825032230
         H            4.923930160797     0.985067942460    -1.641745357756     1.007825032230
         H            5.042906907624     0.918782794332     0.147170045370     1.007825032230
         H            6.116357137885    -0.078670549606    -0.860348588361     1.007825032230

  Running in c1 symmetry.

  Rotational constants: A =      0.03957  B =      0.00836  C =      0.00719 [cm^-1]
  Rotational constants: A =   1186.34679  B =    250.69921  C =    215.40458 [MHz]
  Nuclear repulsion = 1190.396448192954040

  Charge       = 0
  Multiplicity = 1
  Electrons    = 124
  Nalpha       = 62
  Nbeta        = 62

  ==> Algorithm <==

  SCF Algorithm Type is DF.
  DIIS enabled.
  MOM disabled.
  Fractional occupation disabled.
  Guess Type is READ.
  Energy threshold   = 1.00e-08
  Density threshold  = 1.00e-08
  Integral threshold = 0.00e+00

  ==> Primary Basis <==

  Basis Set: 6-31+G*
    Blend: 6-31+G*
    Number of shells: 144
    Number of basis function: 322
    Number of Cartesian functions: 322
    Spherical Harmonics?: false
    Max angular momentum: 2

  ==> DFT Potential <==

   => Composite Functional: WB97X-D <= 

    wB97X-D Hyb-GGA Exchange-Correlation Functional

    J.-D. Chai and M. Head-Gordon, Phys. Chem. Chem. Phys. 10, 6615 (2008)

    Deriv               =              1
    GGA                 =           TRUE
    Meta                =          FALSE

    Exchange Hybrid     =           TRUE
    MP2 Hybrid          =          FALSE

   => Exchange-Correlation Functionals <=

    1.0000   wB97D range-separated functional

   => Exact (HF) Exchange <=

    0.7780            HF,LR [omega = 0.2000]
    0.2220               HF 

   => Molecular Quadrature <=

    Radial Scheme          =       TREUTLER
    Pruning Scheme         =           FLAT
    Nuclear Scheme         =       TREUTLER

    BS radius alpha        =              1
    Pruning alpha          =              1
    Radial Points          =             75
    Spherical Points       =            302
    Total Points           =         520850
    Total Blocks           =           3862
    Max Points             =            256
    Max Functions          =            288

   => WB97X-D: Empirical Dispersion <=

    Chai and Head-Gordon Dispersion Correction
    Chai, J.-D.; Head-Gordon, M. (2010), J. Chem. Phys., 132: 6615-6620

        s6 =       1.000000

   => Loading Basis Set <=

    Name: (6-31+G* AUX)
    Role: JKFIT
    Keyword: DF_BASIS_SCF
    atoms 1             entry N          line   252 file /fsx/users/francis/anaconda3/envs/poltype-dev/share/psi4/basis/heavy-aug-cc-pvdz-jkfit.gbs 
    atoms 2-3, 6-12, 14 entry C          line   194 file /fsx/users/francis/anaconda3/envs/poltype-dev/share/psi4/basis/heavy-aug-cc-pvdz-jkfit.gbs 
    atoms 4-5           entry F          line   368 file /fsx/users/francis/anaconda3/envs/poltype-dev/share/psi4/basis/heavy-aug-cc-pvdz-jkfit.gbs 
    atoms 13            entry S          line   730 file /fsx/users/francis/anaconda3/envs/poltype-dev/share/psi4/basis/heavy-aug-cc-pvdz-jkfit.gbs 
    atoms 15-16         entry O          line   310 file /fsx/users/francis/anaconda3/envs/poltype-dev/share/psi4/basis/heavy-aug-cc-pvdz-jkfit.gbs 
    atoms 17-23         entry H          line   116 file /fsx/users/francis/anaconda3/envs/poltype-dev/share/psi4/basis/heavy-aug-cc-pvdz-jkfit.gbs 

   => Loading Basis Set <=

    Name: 6-31+G*
    Role: ORBITAL
    Keyword: BASIS
    atoms 1             entry N          line   138 file /fsx/users/francis/anaconda3/envs/poltype-dev/share/psi4/basis/6-31pgs.gbs 
    atoms 2-3, 6-12, 14 entry C          line   119 file /fsx/users/francis/anaconda3/envs/poltype-dev/share/psi4/basis/6-31pgs.gbs 
    atoms 4-5           entry F          line   176 file /fsx/users/francis/anaconda3/envs/poltype-dev/share/psi4/basis/6-31pgs.gbs 
    atoms 13            entry S          line   344 file /fsx/users/francis/anaconda3/envs/poltype-dev/share/psi4/basis/6-31pgs.gbs 
    atoms 15-16         entry O          line   157 file /fsx/users/francis/anaconda3/envs/poltype-dev/share/psi4/basis/6-31pgs.gbs 
    atoms 17-23         entry H          line    46 file /fsx/users/francis/anaconda3/envs/poltype-dev/share/psi4/basis/6-31pgs.gbs 

  Reading orbitals from file 180, no projection.

  ==> Pre-Iterations <==

   -------------------------------------------------------
    Irrep   Nso     Nmo     Nalpha   Nbeta   Ndocc  Nsocc
   -------------------------------------------------------
     A        322     322       0       0       0       0
   -------------------------------------------------------
    Total     322     322      62      62      62       0
   -------------------------------------------------------

  ==> Integral Setup <==

  ==> DiskDFJK: Density-Fitted J/K Matrices <==

    J tasked:                  Yes
    K tasked:                  Yes
    wK tasked:                 Yes
    Omega:               2.000E-01
    OpenMP threads:              8
    Integrals threads:           8
    Memory [MiB]:             8428
    Algorithm:                Core
    Integral Cache:           NONE
    Schwarz Cutoff:          1E-12
    Fitting Condition:       1E-10

   => Auxiliary Basis Set <=

  Basis Set: (6-31+G* AUX)
    Blend: HEAVY-AUG-CC-PVDZ-JKFIT
    Number of shells: 523
    Number of basis function: 1840
    Number of Cartesian functions: 1840
    Spherical Harmonics?: false
    Max angular momentum: 3

  Cached 100.0% of DFT collocation blocks in 2.945 [GiB].

  Minimum eigenvalue in the overlap matrix is 4.7227678841E-07.
  Using Symmetric Orthogonalization.

  SCF Guess: Orbitals guess was supplied from a previous computation.

  ==> Iterations <==

                           Total Energy        Delta E     RMS |[F,P]|

   @DF-RKS iter   0: -1188.29290718001812   -1.18829e+03   1.18159e-03 
   @DF-RKS iter   1: -1188.11875947072713    1.74148e-01   2.38741e-04 DIIS
   @DF-RKS iter   2: -1188.11873293775216    2.65330e-05   2.79471e-04 DIIS
   @DF-RKS iter   3: -1188.12222052418019   -3.48759e-03   5.66179e-05 DIIS
   @DF-RKS iter   4: -1188.12233819952826   -1.17675e-04   1.74403e-05 DIIS
   @DF-RKS iter   5: -1188.12235377772527   -1.55782e-05   4.42083e-06 DIIS
   @DF-RKS iter   6: -1188.12235507182686   -1.29410e-06   1.22674e-06 DIIS
   @DF-RKS iter   7: -1188.12235517394083   -1.02114e-07   5.62297e-07 DIIS
   @DF-RKS iter   8: -1188.12235519811497   -2.41741e-08   1.78073e-07 DIIS
   @DF-RKS iter   9: -1188.12235520251079   -4.39582e-09   9.03395e-08 DIIS
   @DF-RKS iter  10: -1188.12235520326840   -7.57609e-10   4.02207e-08 DIIS
   @DF-RKS iter  11: -1188.12235520347485   -2.06455e-10   1.38554e-08 DIIS
   @DF-RKS iter  12: -1188.12235520349782   -2.29647e-11   7.49159e-09 DIIS
  Energy and wave function converged.


  ==> Post-Iterations <==

    Orbital Energies [Eh]
    ---------------------

    Doubly Occupied:                                                      

       1A    -89.085322     2A    -24.870666     3A    -24.870276  
       4A    -19.301185     5A    -19.291549     6A    -14.540294  
       7A    -10.499186     8A    -10.452308     9A    -10.427149  
      10A    -10.404729    11A    -10.386041    12A    -10.356318  
      13A    -10.349977    14A    -10.346811    15A    -10.346141  
      16A    -10.340446    17A     -8.103060    18A     -6.053663  
      19A     -6.049342    20A     -6.043253    21A     -1.389143  
      22A     -1.328026    23A     -1.192332    24A     -1.181102  
      25A     -1.098926    26A     -1.007634    27A     -0.946176  
      28A     -0.908021    29A     -0.888840    30A     -0.869225  
      31A     -0.800578    32A     -0.765715    33A     -0.753719  
      34A     -0.745778    35A     -0.697008    36A     -0.683270  
      37A     -0.668819    38A     -0.646290    39A     -0.629552  
      40A     -0.592190    41A     -0.588181    42A     -0.568217  
      43A     -0.562618    44A     -0.558456    45A     -0.555105  
      46A     -0.554180    47A     -0.550072    48A     -0.534663  
      49A     -0.517905    50A     -0.515625    51A     -0.507043  
      52A     -0.498427    53A     -0.489221    54A     -0.487236  
      55A     -0.475097    56A     -0.442274    57A     -0.436647  
      58A     -0.398437    59A     -0.394307    60A     -0.363941  
      61A     -0.340151    62A     -0.319613  

    Virtual:                                                              

      63A     -0.041954    64A      0.015713    65A      0.039534  
      66A      0.045685    67A      0.058256    68A      0.066439  
      69A      0.068799    70A      0.073085    71A      0.079892  
      72A      0.088784    73A      0.094221    74A      0.096963  
      75A      0.105354    76A      0.112098    77A      0.114643  
      78A      0.117181    79A      0.118109    80A      0.137093  
      81A      0.138899    82A      0.141447    83A      0.146537  
      84A      0.151294    85A      0.162113    86A      0.164730  
      87A      0.173371    88A      0.177258    89A      0.179277  
      90A      0.180362    91A      0.182421    92A      0.191902  
      93A      0.197893    94A      0.201922    95A      0.207852  
      96A      0.210729    97A      0.218258    98A      0.221418  
      99A      0.224207   100A      0.231042   101A      0.234843  
     102A      0.239595   103A      0.242938   104A      0.245201  
     105A      0.246432   106A      0.251575   107A      0.257455  
     108A      0.264957   109A      0.266255   110A      0.278613  
     111A      0.280848   112A      0.288544   113A      0.290426  
     114A      0.295528   115A      0.300141   116A      0.306531  
     117A      0.309750   118A      0.317413   119A      0.323788  
     120A      0.328155   121A      0.334485   122A      0.338150  
     123A      0.341008   124A      0.345227   125A      0.361221  
     126A      0.363405   127A      0.366207   128A      0.376570  
     129A      0.385669   130A      0.390932   131A      0.394443  
     132A      0.397212   133A      0.401375   134A      0.405512  
     135A      0.412956   136A      0.420005   137A      0.436304  
     138A      0.442107   139A      0.448823   140A      0.453524  
     141A      0.465515   142A      0.476763   143A      0.477685  
     144A      0.487973   145A      0.511589   146A      0.519499  
     147A      0.532897   148A      0.533737   149A      0.542726  
     150A      0.558909   151A      0.577822   152A      0.582404  
     153A      0.594055   154A      0.610376   155A      0.617005  
     156A      0.636151   157A      0.653443   158A      0.673268  
     159A      0.690605   160A      0.712933   161A      0.727279  
     162A      0.745383   163A      0.755017   164A      0.758936  
     165A      0.770699   166A      0.778861   167A      0.788868  
     168A      0.801826   169A      0.808984   170A      0.823331  
     171A      0.830125   172A      0.851797   173A      0.865482  
     174A      0.877344   175A      0.890256   176A      0.896951  
     177A      0.918116   178A      0.930408   179A      0.932001  
     180A      0.939210   181A      0.961822   182A      0.972590  
     183A      0.978276   184A      0.992563   185A      1.021080  
     186A      1.026042   187A      1.047191   188A      1.049352  
     189A      1.059089   190A      1.075514   191A      1.099656  
     192A      1.114244   193A      1.125481   194A      1.160152  
     195A      1.174078   196A      1.176295   197A      1.206075  
     198A      1.210369   199A      1.221747   200A      1.225914  
     201A      1.249733   202A      1.254174   203A      1.274128  
     204A      1.282032   205A      1.285958   206A      1.327576  
     207A      1.330159   208A      1.336051   209A      1.349280  
     210A      1.399402   211A      1.407967   212A      1.416154  
     213A      1.420722   214A      1.425974   215A      1.450556  
     216A      1.454397   217A      1.465430   218A      1.467443  
     219A      1.480582   220A      1.490414   221A      1.512838  
     222A      1.526122   223A      1.527843   224A      1.546802  
     225A      1.586478   226A      1.604137   227A      1.631615  
     228A      1.661127   229A      1.675755   230A      1.685633  
     231A      1.719754   232A      1.749560   233A      1.755549  
     234A      1.761694   235A      1.762753   236A      1.770857  
     237A      1.777562   238A      1.789816   239A      1.793465  
     240A      1.831890   241A      1.841567   242A      1.879916  
     243A      1.895486   244A      1.900127   245A      1.917625  
     246A      1.926187   247A      1.929301   248A      1.968024  
     249A      1.971462   250A      1.975896   251A      1.985597  
     252A      2.023532   253A      2.047355   254A      2.057721  
     255A      2.068177   256A      2.070787   257A      2.095232  
     258A      2.121325   259A      2.121875   260A      2.144838  
     261A      2.178355   262A      2.180339   263A      2.191713  
     264A      2.217896   265A      2.225590   266A      2.237987  
     267A      2.262222   268A      2.265501   269A      2.279953  
     270A      2.284934   271A      2.311719   272A      2.323259  
     273A      2.329270   274A      2.358210   275A      2.364292  
     276A      2.386408   277A      2.395386   278A      2.434865  
     279A      2.481547   280A      2.490804   281A      2.532336  
     282A      2.561494   283A      2.608473   284A      2.656161  
     285A      2.692743   286A      2.704862   287A      2.736474  
     288A      2.766723   289A      2.779255   290A      2.791876  
     291A      2.797029   292A      2.843153   293A      2.857449  
     294A      2.884982   295A      2.934770   296A      2.973508  
     297A      2.989391   298A      3.057719   299A      3.159840  
     300A      3.192021   301A      3.226299   302A      3.258581  
     303A      3.374870   304A      3.428802   305A      3.518680  
     306A      3.528334   307A      4.043462   308A      4.303209  
     309A      4.343583   310A      4.356166   311A      4.368885  
     312A      4.395954   313A      4.431492   314A      4.489634  
     315A      4.495191   316A      4.535120   317A      4.604597  
     318A      4.824427   319A      4.886774   320A      5.171132  
     321A      5.717454   322A      7.268971  

    Final Occupation by Irrep:
              A 
    DOCC [    62 ]

  @DF-RKS Final Energy: -1188.12235520349782

   => Energetics <=

    Nuclear Repulsion Energy =           1190.3964481929540398
    One-Electron Energy =               -3994.7566297488610871
    Two-Electron Energy =                1705.8196981387800406
    DFT Exchange-Correlation Energy =     -89.5681171480150766
    Empirical Dispersion Energy =          -0.0137546383559314
    VV10 Nonlocal Energy =                  0.0000000000000000
    Total Energy =                      -1188.1223552034978184

Computation Completed


Properties will be evaluated at   0.000000,   0.000000,   0.000000 [a0]

Properties computed using the SCF density matrix

  Nuclear Dipole Moment: [e a0]
     X:    25.7932      Y:     0.3195      Z:    -4.1857

  Electronic Dipole Moment: [e a0]
     X:   -22.5978      Y:    -0.6616      Z:     3.6594

  Dipole Moment: [e a0]
     X:     3.1954      Y:    -0.3421      Z:    -0.5263     Total:     3.2565

  Dipole Moment: [D]
     X:     8.1219      Y:    -0.8694      Z:    -1.3378     Total:     8.2771


*** tstop() called on cpu-spot-dy-c5n2xlarge-1 at Tue Jun 22 02:20:51 2021
Module time:
	user time   =     445.39 seconds =       7.42 minutes
	system time =       6.20 seconds =       0.10 minutes
	total time  =         59 seconds =       0.98 minutes
Total time:
	user time   =    1157.33 seconds =      19.29 minutes
	system time =      20.39 seconds =       0.34 minutes
	total time  =        158 seconds =       2.63 minutes

*** tstart() called on cpu-spot-dy-c5n2xlarge-1
*** at Tue Jun 22 02:20:51 2021


         ------------------------------------------------------------
                                   SCF GRAD                          
                          Rob Parrish, Justin Turney,                
                       Andy Simmonett, and Alex Sokolov              
         ------------------------------------------------------------

  ==> Geometry <==

    Molecular point group: c1
    Full point group: C1

    Geometry (in Angstrom), charge = 0, multiplicity = 1:

       Center              X                  Y                   Z               Mass       
    ------------   -----------------  -----------------  -----------------  -----------------
         N           -0.974641748625    -1.517274337341     0.173732702619    14.003074004430
         C           -2.281601738520    -1.192042874348     0.419921704552    12.000000000000
         C           -2.604040428147     0.316383901742     0.469187108553    12.000000000000
         F           -3.538967536489     0.561441758436    -0.484821483072    18.998403162730
         F           -3.163046313652     0.572718213916     1.679439832613    18.998403162730
         C           -1.437997516304     1.312356434478     0.259965582794    12.000000000000
         C           -0.108850220112     0.746925290621     0.005564663357    12.000000000000
         C            0.984477094574     1.591797846087    -0.197312504566    12.000000000000
         C            2.247361033005     1.084591456308    -0.436931910995    12.000000000000
         C            2.438972701590    -0.302478893307    -0.482360209054    12.000000000000
         C            1.356917439255    -1.160356248058    -0.268139373924    12.000000000000
         C            0.092873214840    -0.641926517514    -0.033259228709    12.000000000000
         S            3.991290731039    -1.079958341420    -0.745045690683    31.972071174400
         C            5.113235744124     0.341875117130    -0.778603874854    12.000000000000
         O           -3.141926035193    -2.026851961375     0.589041146938    15.994914619570
         O           -1.677802499509     2.498568914716     0.315430047571    15.994914619570
         H            3.073708696251     1.770091349529    -0.591372326981     1.007825032230
         H            0.817450331420     2.663057623524    -0.162241607737     1.007825032230
         H           -0.800561919434    -2.515259912991     0.146468824368     1.007825032230
         H            1.505084655371    -2.237646398247    -0.283833784041     1.007825032230
         H            4.923930160797     0.985067942460    -1.641745357756     1.007825032230
         H            5.042906907624     0.918782794332     0.147170045370     1.007825032230
         H            6.116357137885    -0.078670549606    -0.860348588361     1.007825032230

  Nuclear repulsion = 1190.396448192954040

  ==> Basis Set <==

  Basis Set: 6-31+G*
    Blend: 6-31+G*
    Number of shells: 144
    Number of basis function: 322
    Number of Cartesian functions: 322
    Spherical Harmonics?: false
    Max angular momentum: 2

  ==> DFJKGrad: Density-Fitted SCF Gradients <==

    Gradient:                    1
    J tasked:                  Yes
    K tasked:                  Yes
    wK tasked:                 Yes
    Omega:               2.000E-01
    OpenMP threads:              8
    Integrals threads:           8
    Memory [MiB]:            11444
    Schwarz Cutoff:          0E+00
    Fitting Condition:       1E-10

   => Auxiliary Basis Set <=

  Basis Set: (6-31+G* AUX)
    Blend: HEAVY-AUG-CC-PVDZ-JKFIT
    Number of shells: 523
    Number of basis function: 1840
    Number of Cartesian functions: 1840
    Spherical Harmonics?: false
    Max angular momentum: 3

  ==> DFT Potential <==

   => Composite Functional: WB97X-D <= 

    wB97X-D Hyb-GGA Exchange-Correlation Functional

    J.-D. Chai and M. Head-Gordon, Phys. Chem. Chem. Phys. 10, 6615 (2008)

    Deriv               =              1
    GGA                 =           TRUE
    Meta                =          FALSE

    Exchange Hybrid     =           TRUE
    MP2 Hybrid          =          FALSE

   => Exchange-Correlation Functionals <=

    1.0000   wB97D range-separated functional

   => Exact (HF) Exchange <=

    0.7780            HF,LR [omega = 0.2000]
    0.2220               HF 

   => Molecular Quadrature <=

    Radial Scheme          =       TREUTLER
    Pruning Scheme         =           FLAT
    Nuclear Scheme         =       TREUTLER

    BS radius alpha        =              1
    Pruning alpha          =              1
    Radial Points          =             75
    Spherical Points       =            302
    Total Points           =         520850
    Total Blocks           =           3862
    Max Points             =            256
    Max Functions          =            288


  -Total Gradient:
     Atom            X                  Y                   Z
    ------   -----------------  -----------------  -----------------
       1        0.001787461535     0.002749423020    -0.000306257964
       2        0.000747471588     0.002498808586    -0.000272574142
       3        0.004931325800    -0.001044022946    -0.001280468023
       4       -0.001312072495     0.000405654007    -0.000449472840
       5       -0.001221579472     0.000503984848     0.001345952006
       6       -0.002712996416    -0.002350557092     0.000371416642
       7        0.001698316605    -0.001129038369    -0.000302348397
       8        0.000245469815    -0.000003265532     0.000060941583
       9       -0.001751298651    -0.003411127930     0.001468905414
      10        0.000564802133     0.003504891573    -0.003525445389
      11        0.000068528830     0.001069833462     0.001476123382
      12        0.003311378646    -0.000069084584    -0.000575707450
      13       -0.002496092322    -0.003737447083     0.000897476802
      14       -0.000510176503     0.002123597383     0.000310634592
      15       -0.001042373117    -0.001940807006     0.000219270309
      16        0.000604997711     0.000511388560    -0.000029363071
      17        0.001771282199     0.000580184023    -0.000079574442
      18        0.000326320402    -0.000588693018    -0.000098425024
      19       -0.000977317505    -0.000416407459     0.000257965125
      20       -0.000113698014    -0.000241938074     0.000068793516
      21       -0.000765750100     0.000520698428     0.000206303557
      22       -0.000980798578     0.000457858968     0.000030645359
      23       -0.001286220846    -0.000493068872     0.000268165548


*** tstop() called on cpu-spot-dy-c5n2xlarge-1 at Tue Jun 22 02:21:15 2021
Module time:
	user time   =     146.44 seconds =       2.44 minutes
	system time =       3.55 seconds =       0.06 minutes
[...]
	   Coordinate                Previous        Force       Change         New 
	   ----------                --------       ------       ------       ------
	    1 R(1,2)          =      1.369655    -0.000340    -0.000047     1.369608
	    2 R(1,12)         =      1.397772    -0.000163    -0.000049     1.397724
	    3 R(1,19)         =      1.012997     0.000127     0.000022     1.013019
	    4 R(2,3)          =      1.547224     0.000456     0.000180     1.547404
	    5 R(2,15)         =      1.208965     0.000398     0.000037     1.209002
	    6 R(3,4)          =      1.361383     0.003235     0.000638     1.362021
	    7 R(3,5)          =      1.348681    -0.001835    -0.000301     1.348379
	    8 R(3,6)          =      1.552549    -0.000092     0.000033     1.552582
	    9 R(6,7)          =      1.465564     0.000415     0.000058     1.465622
	   10 R(6,16)         =      1.211040    -0.001208    -0.000132     1.210908
	   11 R(7,8)          =      1.398798    -0.000587    -0.000126     1.398672
	   12 R(7,12)         =      1.405516     0.000471     0.000091     1.405607
	   13 R(8,9)          =      1.382885     0.000658     0.000122     1.383007
	   14 R(8,18)         =      1.085745     0.000041     0.000008     1.085752
	   15 R(9,10)         =      1.404598    -0.000561    -0.000088     1.404510
	   16 R(9,17)         =      1.083263    -0.000112    -0.000047     1.083215
	   17 R(10,11)        =      1.398784     0.000557     0.000105     1.398889
	   18 R(10,13)        =      1.761286     0.000189     0.000096     1.761382
	   19 R(11,12)        =      1.390610    -0.000354    -0.000040     1.390570
	   20 R(11,20)        =      1.087318     0.000089     0.000021     1.087339
	   21 R(13,14)        =      1.808360     0.000460     0.000162     1.808523
	   22 R(14,21)        =      1.092804    -0.000096    -0.000011     1.092793
	   23 R(14,22)        =      1.092856    -0.000012     0.000002     1.092858
	   24 R(14,23)        =      1.092381    -0.000013    -0.000011     1.092370
	   25 B(1,2,3)        =    115.804862     0.000001     0.009869   115.814730
	   26 B(1,2,15)       =    122.945154    -0.000002    -0.011702   122.933452
	   27 B(1,12,7)       =    120.849787    -0.000003    -0.010537   120.839250
	   28 B(1,12,11)      =    119.050311     0.000001     0.002342   119.052654
	   29 B(2,1,12)       =    126.967148     0.000002     0.006808   126.973956
	   30 B(2,1,19)       =    114.528176    -0.000001    -0.002042   114.526135
	   31 B(2,3,4)        =    106.865476    -0.000021    -0.133687   106.731789
	   32 B(2,3,5)        =    107.742657     0.000014     0.095187   107.837844
	   33 B(2,3,6)        =    117.739666     0.000001    -0.009834   117.729832
	   34 B(3,2,15)       =    121.225218     0.000001     0.008146   121.233364
	   35 B(3,6,7)        =    116.845974    -0.000003    -0.009735   116.836239
	   36 B(3,6,16)       =    118.355702     0.000005     0.012149   118.367851
	   37 B(4,3,5)        =    108.299126     0.000002     0.023676   108.322803
	   38 B(4,3,6)        =    106.931897     0.000007     0.039777   106.971674
	   39 B(5,3,6)        =    108.933299    -0.000003    -0.015397   108.917902
	   40 B(6,7,8)        =    120.147071    -0.000001    -0.001465   120.145606
	   41 B(6,7,12)       =    121.010926     0.000003     0.009632   121.020558
	   42 B(7,6,16)       =    124.785307    -0.000002    -0.007854   124.777452
	   43 B(7,8,9)        =    121.479595     0.000000     0.000453   121.480047
	   44 B(7,8,18)       =    117.927027     0.000002     0.005780   117.932807
	   45 B(7,12,11)      =    120.092922     0.000002     0.009289   120.102211
	   46 B(8,7,12)       =    118.841273    -0.000002    -0.009724   118.831549
	   47 B(8,9,10)       =    119.436423     0.000002     0.011662   119.448085
	   48 B(8,9,17)       =    119.450722    -0.000004    -0.017550   119.433172
	   49 B(9,8,18)       =    120.593275    -0.000002    -0.006215   120.587060
	   50 B(9,10,11)      =    119.712949    -0.000002    -0.013002   119.699946
	   51 B(9,10,13)      =    124.172553     0.000002     0.008475   124.181028
	   52 B(10,9,17)      =    121.111304     0.000002     0.005628   121.116932
	   53 B(10,11,12)     =    120.425599     0.000000     0.001154   120.426752
	   54 B(10,11,20)     =    119.822848    -0.000002    -0.008988   119.813860
	   55 B(10,13,14)     =    103.587692     0.000001     0.015114   103.602806
	   56 B(11,10,13)     =    116.083648    -0.000000     0.004536   116.088184
	   57 B(12,1,19)      =    118.469919    -0.000001    -0.004076   118.465842
	   58 B(12,11,20)     =    119.751544     0.000002     0.007836   119.759379
	   59 B(13,14,21)     =    111.897537    -0.000003    -0.016020   111.881516
	   60 B(13,14,22)     =    111.488189    -0.000003    -0.017785   111.470404
	   61 B(13,14,23)     =    105.459351     0.000002     0.016471   105.475821
	   62 B(21,14,22)     =    110.520842     0.000002     0.008096   110.528938
	   63 B(21,14,23)     =    108.583729     0.000001     0.004252   108.587980
	   64 B(22,14,23)     =    108.679879     0.000001     0.006518   108.686397
	   65 D(1,2,3,4)      =    110.557368     0.000000    -0.001290   110.556078
	   66 D(1,2,3,5)      =   -133.244559    -0.000000     0.005579  -133.238980
	   67 D(1,2,3,6)      =     -9.659507     0.000002     0.057999    -9.601508
	   68 D(1,12,7,6)     =     -0.596095     0.000002     0.219572    -0.376523
	   69 D(1,12,7,8)     =    179.093562     0.000000    -0.019471   179.074091
	   70 D(1,12,11,10)   =   -179.954705    -0.000000    -0.010925  -179.965630
	   71 D(1,12,11,20)   =      0.080960    -0.000000    -0.013932     0.067028
	   72 D(2,1,12,7)     =      0.851363    -0.000000    -0.033108     0.818255
	   73 D(2,1,12,11)    =    179.891133     0.000000     0.045451   179.936584
	   74 D(2,3,6,7)      =      9.942838     0.000000     0.105642    10.048481
	   75 D(2,3,6,16)     =   -171.306251    -0.000003    -0.132705  -171.438956
	   76 D(3,2,1,12)     =      4.482506    -0.000002    -0.102497     4.380010
	   77 D(3,2,1,19)     =   -177.712170    -0.000002    -0.080722  -177.792893
	   78 D(3,6,7,8)      =    175.394237    -0.000000    -0.003858   175.390380
	   79 D(3,6,7,12)     =     -4.920132    -0.000002    -0.246047    -5.166178
	   80 D(4,3,2,15)     =    -67.683812    -0.000003    -0.241681   -67.925493
	   81 D(4,3,6,7)      =   -110.239366     0.000005     0.255635  -109.983730
	   82 D(4,3,6,16)     =     68.511545     0.000002     0.017288    68.528833
	   83 D(5,3,2,15)     =     48.514260    -0.000004    -0.234812    48.279448
	   84 D(5,3,6,7)      =    132.926734     0.000004     0.214298   133.141032
	   85 D(5,3,6,16)     =    -48.322355     0.000001    -0.024049   -48.346404
	   86 D(6,3,2,15)     =    172.099313    -0.000002    -0.182392   171.916921
	   87 D(6,7,8,9)      =   -179.921272    -0.000002    -0.168366  -180.089638
	   88 D(6,7,8,18)     =     -0.037790    -0.000001    -0.157565    -0.195354
	   89 D(6,7,12,11)    =   -179.625898     0.000002     0.140261  -179.485637
	   90 D(7,8,9,10)     =      0.008493     0.000000    -0.005188     0.003305
	   91 D(7,8,9,17)     =    179.560587     0.000000    -0.041213   179.519373
	   92 D(7,12,1,19)    =   -176.877301    -0.000000    -0.055694  -176.932995
	   93 D(7,12,11,10)   =     -0.907500     0.000000     0.066847    -0.840653
	   94 D(7,12,11,20)   =    179.128166     0.000000     0.063840   179.192005
	   95 D(8,7,6,16)     =     -3.267351     0.000003     0.251207    -3.016144
	   96 D(8,7,12,11)    =      0.063760    -0.000000    -0.098782    -0.035022
	   97 D(8,9,10,11)    =     -0.850397    -0.000000    -0.028270    -0.878667
	   98 D(8,9,10,13)    =   -178.748356    -0.000000    -0.028624  -178.776980
	   99 D(9,8,7,12)     =      0.386318    -0.000000     0.068493     0.454811
	  100 D(9,10,11,12)   =      1.303189    -0.000000    -0.002774     1.300415
	  101 D(9,10,11,20)   =   -178.732501    -0.000000     0.000241  -178.732261
	  102 *D(9,10,13,14)  =      4.348919    -0.000000    -0.000000     4.348919
	  103 D(10,9,8,18)    =   -179.871911    -0.000000    -0.016288  -179.888199
	  104 *D(10,13,14,21) =    -65.980004     0.000000    -0.000000   -65.980004
	  105 D(10,13,14,22)  =     58.371142    -0.000000    -0.014834    58.356308
	  106 D(10,13,14,23)  =    176.146110    -0.000000    -0.006575   176.139535
	  107 D(11,10,9,17)   =    179.605155     0.000000     0.008484   179.613640
	  108 *D(11,10,13,14) =   -173.618425    -0.000000    -0.000000  -173.618425
	  109 D(11,12,1,19)   =      2.162469     0.000000     0.022865     2.185334
	  110 D(12,1,2,15)    =   -177.309742     0.000002     0.142803  -177.166938
	  111 D(12,7,6,16)    =    176.418280     0.000001     0.009019   176.427298
	  112 D(12,7,8,18)    =   -179.730200     0.000000     0.079295  -179.650905
	  113 D(12,11,10,13)  =    179.366923    -0.000000    -0.002329   179.364595
	  114 D(13,10,9,17)   =      1.707196     0.000000     0.008131     1.715326
	  115 D(13,10,11,20)  =     -0.668767    -0.000000     0.000686    -0.668082
	  116 D(15,2,1,19)    =      0.495582     0.000002     0.164578     0.660160
	  117 D(17,9,8,18)    =     -0.319817    -0.000000    -0.052313    -0.372130
	  118 R(1,X)          =     -0.964836    -0.000427    -0.000286    -0.965122
	  119 R(1,Y)          =     -1.523397     0.000449     0.000203    -1.523195
	  120 R(1,Z)          =      0.244584    -0.000305    -0.000260     0.244324
	  121 R(2,X)          =     -2.253765    -0.000213    -0.000467    -2.254232
	  122 R(2,Y)          =     -1.197601     0.000287     0.000123    -1.197478
	  123 R(2,Z)          =      0.573937    -0.000722    -0.001088     0.572849
	  124 R(3,X)          =     -2.591421    -0.000169    -0.000296    -2.591717
	  125 R(3,Y)          =      0.312264     0.000787     0.000362     0.312625
	  126 R(3,Z)          =      0.559861     0.001672     0.000723     0.560584
	  127 R(4,X)          =     -3.428437    -0.001448     0.000519    -3.427918
	  128 R(4,Y)          =      0.520003    -0.002550    -0.001025     0.518978
	  129 R(4,Z)          =     -0.493521    -0.002151    -0.001019    -0.494540
	  130 R(5,X)          =     -3.262025    -0.000301    -0.001257    -3.263282
	  131 R(5,Y)          =      0.594052     0.002162     0.000948     0.595000
	  132 R(5,Z)          =      1.695565    -0.000927    -0.000348     1.695217
	  133 R(6,X)          =     -1.415422    -0.000397     0.000038    -1.415384
	  134 R(6,Y)          =      1.314357     0.000977     0.000197     1.314554
	  135 R(6,Z)          =      0.407402     0.002099     0.001885     0.409287
	  136 R(7,X)          =     -0.106414    -0.000707    -0.000700    -0.107114
	  137 R(7,Y)          =      0.751425     0.000454     0.000191     0.751616
	  138 R(7,Z)          =      0.064641    -0.000000    -0.001155     0.063486
	  139 R(8,X)          =      0.979028    -0.001137    -0.000586     0.978443
	  140 R(8,Y)          =      1.597944     0.000010     0.000065     1.598008
	  141 R(8,Z)          =     -0.184066    -0.000088    -0.000381    -0.184447
	  142 R(9,X)          =      2.225638    -0.000505    -0.000345     2.225293
	  143 R(9,Y)          =      1.096636    -0.000285    -0.000019     1.096617
	  144 R(9,Z)          =     -0.511218    -0.000013     0.000150    -0.511068
	  145 R(10,X)         =      2.410031    -0.000077    -0.000128     2.409903
	  146 R(10,Y)         =     -0.293170     0.000345     0.000108    -0.293062
	  147 R(10,Z)         =     -0.596865    -0.000114     0.000005    -0.596859
	  148 R(11,X)         =      1.338073    -0.000608    -0.000260     1.337813
	  149 R(11,Y)         =     -1.152317     0.000116     0.000090    -1.152227
	  150 R(11,Z)         =     -0.333485    -0.000065    -0.000032    -0.333517
	  151 R(12,X)         =      0.085868    -0.000234    -0.000195     0.085673
	  152 R(12,Y)         =     -0.638639     0.000044     0.000102    -0.638537
	  153 R(12,Z)         =     -0.014244    -0.000025     0.000030    -0.014215
	  154 R(13,X)         =      3.947687     0.000024    -0.000027     3.947660
	  155 R(13,Y)         =     -1.065868     0.000098     0.000124    -1.065744
	  156 R(13,Z)         =     -0.971937    -0.000076    -0.000064    -0.972002
	  157 R(14,X)         =      5.108938     0.000788     0.000405     5.109344
	  158 R(14,Y)         =      0.317777     0.000056    -0.000027     0.317750
	  159 R(14,Z)         =     -1.056740    -0.000126    -0.000057    -1.056797
	  160 R(15,X)         =     -3.096447     0.000165     0.000288    -3.096159
	  161 R(15,Y)         =     -2.025908    -0.000297    -0.000016    -2.025923
	  162 R(15,Z)         =      0.829652     0.000514     0.001116     0.830768
	  163 R(16,X)         =     -1.642790     0.000495     0.000191    -1.642598
	  164 R(16,Y)         =      2.494710     0.000036     0.000226     2.494936
	  165 R(16,Z)         =      0.554668     0.001086     0.000808     0.555476
	  166 R(17,X)         =      3.041617    -0.001051    -0.000588     3.041029
	  167 R(17,Y)         =      1.782474     0.000236     0.000191     1.782665
	  168 R(17,Z)         =     -0.704251     0.000156     0.000134    -0.704117
	  169 R(18,X)         =      0.814947    -0.000631    -0.000375     0.814573
	  170 R(18,Y)         =      2.668974     0.000126     0.000086     2.669061
	  171 R(18,Z)         =     -0.114701    -0.000029    -0.000098    -0.114799
	  172 R(19,X)         =     -0.774553    -0.000511    -0.000262    -0.774814
	  173 R(19,Y)         =     -2.518158     0.000306     0.000183    -2.517975
	  174 R(19,Z)         =      0.224427    -0.000442    -0.000174     0.224252
	  175 R(20,X)         =      1.484058    -0.000270    -0.000153     1.483905
	  176 R(20,Y)         =     -2.228826     0.000079     0.000087    -2.228739
	  177 R(20,Z)         =     -0.379064    -0.000250    -0.000124    -0.379189
	  178 R(21,X)         =      4.889152     0.000608     0.000314     4.889466
	  179 R(21,Y)         =      0.983521    -0.000300    -0.000136     0.983385
	  180 R(21,Z)         =     -1.895011    -0.000236    -0.000106    -1.895117
	  181 R(22,X)         =      5.133275     0.000269     0.000134     5.133409
	  182 R(22,Y)         =      0.878046    -0.000214    -0.000111     0.877934
	  183 R(22,Z)         =     -0.118741     0.000035     0.000002    -0.118738
	  184 R(23,X)         =      6.089745     0.000809     0.000432     6.090177
	  185 R(23,Y)         =     -0.134801     0.000077     0.000027    -0.134774
	  186 R(23,Z)         =     -1.219491     0.000029     0.000030    -1.219461
	 ---------------------------------------------------------------------------
	Successfully symmetrized geometry.

  ==> Convergence Check <==

  Measures of convergence in internal coordinates in au.
  Criteria marked as inactive (o), active & met (*), and active & unmet ( ).
  ---------------------------------------------------------------------------------------------
   Step     Total Energy     Delta E     MAX Force     RMS Force      MAX Disp      RMS Disp   
  ---------------------------------------------------------------------------------------------
    Convergence Criteria             o    2.50e-03 *    1.70e-03 *    1.00e-02 *    6.70e-03 *
  ---------------------------------------------------------------------------------------------
      2   -1188.12294476   -5.37e-05 o    3.93e-04 *    8.61e-05 *    4.46e-03 *    1.20e-03 *  ~
  ---------------------------------------------------------------------------------------------


  **** Optimization is complete! (in 2 steps) ****

  ==> Optimization Summary <==

  Measures of convergence in internal coordinates in au.
  --------------------------------------------------------------------------------------------------------------- ~
   Step         Total Energy             Delta E       MAX Force       RMS Force        MAX Disp        RMS Disp  ~
  --------------------------------------------------------------------------------------------------------------- ~
      1   -1188.122891061049  -1188.122891061049      0.00105428      0.00019699      0.02446202      0.00554926  ~
      2   -1188.122944758293     -0.000053697243      0.00039267      0.00008611      0.00446168      0.00120209  ~
  --------------------------------------------------------------------------------------------------------------- ~

	Writing optimization data to binary file.
	Final energy is  -1188.1229447582925
	Final (previous) structure:
	Cartesian Geometry (in Angstrom)
	    N    -0.9648356414  -1.5233974584   0.2445836726
	    C    -2.2537646888  -1.1976010416   0.5739369168
	    C    -2.5914209835   0.3122635880   0.5598605835
	    F    -3.4284366923   0.5200032474  -0.4935209242
	    F    -3.2620248946   0.5940516133   1.6955653199
	    C    -1.4154223731   1.3143567963   0.4074020034
	    C    -0.1064144722   0.7514248427   0.0646414235
	    C     0.9790283512   1.5979435299  -0.1840660412
	    C     2.2256375417   1.0966359046  -0.5112179609
	    C     2.4100310146  -0.2931697674  -0.5968646152
	    C     1.3380727615  -1.1523170338  -0.3334851524
	    C     0.0858681513  -0.6386393077  -0.0142444254
	    S     3.9476874894  -1.0658676102  -0.9719372821
	    C     5.1089380756   0.3177772712  -1.0567395416
	    O    -3.0964469677  -2.0259078948   0.8296517145
	    O    -1.6427895311   2.4947101530   0.5546678215
	    H     3.0416169049   1.7824738932  -0.7042509993
	    H     0.8149473975   2.6689743724  -0.1147006194
	    H    -0.7745526262  -2.5181580653   0.2244266396
	    H     1.4840575345  -2.2288261261  -0.3790643737
	    H     4.8891517169   0.9835210735  -1.8950110255
	    H     5.1332751633   0.8780455224  -0.1187405104
	    H     6.0897447033  -0.1348005143  -1.2194909426
	Saving final (previous) structure.
			--------------------------
			 OPTKING Finished Execution 
			--------------------------

    Final optimized geometry and variables:
    Molecular point group: c1
    Full point group: C1

    Geometry (in Angstrom), charge = 0, multiplicity = 1:

    N           -0.964835645231    -1.523397464431     0.244583673584
    C           -2.253764697673    -1.197601046289     0.573936919044
    C           -2.591420993666     0.312263589249     0.559860585683
    F           -3.428436705744     0.520003249481    -0.493520926159
    F           -3.262024907429     0.594051615644     1.695565326554
    C           -1.415422378645     1.314356801421     0.407402005014
    C           -0.106414472591     0.751424845663     0.064641423752
    C            0.979028355080     1.597943536137    -0.184066041894
    C            2.225637550412     1.096635908878    -0.511217962909
    C            2.410031024105    -0.293169768602    -0.596864617528
    C            1.338072766748    -1.152317038345    -0.333485153691
    C            0.085868151672    -0.638639310225    -0.014244425460
    S            3.947687504959    -1.065867614436    -0.971937285944
    C            5.108938095688     0.317777272490    -1.056739545777
    O           -3.096446979884    -2.025907902803     0.829651717727
    O           -1.642789537594     2.494710162831     0.554667823711
    H            3.041616916844     1.782473900249    -0.704251002075
    H            0.814947400725     2.668974382937    -0.114700619878
    H           -0.774552629230    -2.518158075177     0.224426640521
    H            1.484057540305    -2.228826134901    -0.379064375147
    H            4.889151736129     0.983521077358    -1.895011032976
    H            5.133275183455     0.878045525861    -0.118740510915
    H            6.089744727187    -0.134800514835    -1.219490947443

	Removing binary optimization data file.
	Cleaning optimization helper files.

    Psi4 stopped on: Tuesday, 22 June 2021 02:46AM
    Psi4 wall time for execution: 0:28:02.64

*** Psi4 exiting successfully. Buy a developer a beer!
