
    -----------------------------------------------------------------------
          Psi4: An Open-Source Ab Initio Electronic Structure Package
                               Psi4 1.3.2 release

                         Git: Rev {HEAD} ecbda83 


    R. M. Parrish, L. A. Burns, D. G. A. Smith, A. C. Simmonett,
    A. E. DePrince III, E. G. Hohenstein, U. Bozkaya, A. Yu. Sokolov,
    R. Di Remigio, R. M. Richard, J. F. Gonthier, A. M. James,
    H. R. McAlexander, A. Kumar, M. Saitow, X. Wang, B. P. Pritchard,
    P. Verma, H. F. Schaefer III, K. Patkowski, R. A. King, E. F. Valeev,
    F. A. Evangelista, J. M. Turney, T. D. Crawford, and C. D. Sherrill,
    J. Chem. Theory Comput. 13(7) pp 3185--3197 (2017).
    (doi: 10.1021/acs.jctc.7b00174)


                         Additional Contributions by
    P. Kraus, H. Kruse, M. H. Lechner, M. C. Schieber, R. A. Shaw,
    A. Alenaizan, R. Galvelis, Z. L. Glick, S. Lehtola, and J. P. Misiewicz

    -----------------------------------------------------------------------


    Psi4 started on: Tuesday, 22 June 2021 07:45AM

    Process ID: 32140
    Host:       cpu-spot-dy-c5n2xlarge-1
    PSIDATADIR: /fsx/users/francis/anaconda3/envs/poltype-dev/share/psi4
    Memory:     500.0 MiB
    Threads:    1
    
  ==> Input File <==

--------------------------------------------------------------------------
molecule { 
0 1
 N   -1.011167   -1.500921    0.183144
 C   -2.289787   -1.155344    0.532730
 C   -2.590862    0.363058    0.512566
 F   -3.231701    0.606542   -0.674269
 F   -3.435259    0.648097    1.513769
 C   -1.374668    1.326678    0.556073
 C   -0.085552    0.754424    0.154193
 C    1.030125    1.579935   -0.019735
 C    2.261226    1.063879   -0.380172
 C    2.400256   -0.319879   -0.578443
 C    1.300591   -1.159927   -0.377058
 C    0.063884   -0.631487   -0.022822
 S    3.900349   -1.128400   -1.031659
 C    5.146926    0.181729   -1.029555
 O   -3.147909   -1.969438    0.781907
 O   -1.553881    2.484927    0.859183
 H    3.102238    1.735413   -0.497429
 H    0.902386    2.646326    0.140187
 H   -0.842585   -2.498107    0.126325
 H    1.411680   -2.234269   -0.503732
 H    5.944168   -0.157995   -1.693731
 H    4.757963    1.105047   -1.463964
 H    5.539145    0.372691   -0.028873
}
memory 16GB
set_num_threads(8)
psi4_io.set_default_path("/scratch/Psi4-ligand")
set freeze_core True
E, wfn = energy('wb97x-d/6-311++g**',return_wfn=True)
oeprop(wfn,"WIBERG_LOWDIN_INDICES")
clean()
--------------------------------------------------------------------------

  Memory set to  14.901 GiB by Python driver.
  Threads set to 8 by Python driver.

*** tstart() called on cpu-spot-dy-c5n2xlarge-1
*** at Tue Jun 22 07:45:11 2021

   => Loading Basis Set <=

    Name: 6-311++G**
    Role: ORBITAL
    Keyword: BASIS
    atoms 1             entry N          line   140 file /fsx/users/francis/anaconda3/envs/poltype-dev/share/psi4/basis/6-311ppgss.gbs 
    atoms 2-3, 6-12, 14 entry C          line   119 file /fsx/users/francis/anaconda3/envs/poltype-dev/share/psi4/basis/6-311ppgss.gbs 
    atoms 4-5           entry F          line   182 file /fsx/users/francis/anaconda3/envs/poltype-dev/share/psi4/basis/6-311ppgss.gbs 
    atoms 13            entry S          line   419 file /fsx/users/francis/anaconda3/envs/poltype-dev/share/psi4/basis/6-311ppgss.gbs 
    atoms 15-16         entry O          line   161 file /fsx/users/francis/anaconda3/envs/poltype-dev/share/psi4/basis/6-311ppgss.gbs 
    atoms 17-23         entry H          line    42 file /fsx/users/francis/anaconda3/envs/poltype-dev/share/psi4/basis/6-311ppgss.gbs 


         ---------------------------------------------------------
                                   SCF
               by Justin Turney, Rob Parrish, Andy Simmonett
                          and Daniel G. A. Smith
                              RKS Reference
                        8 Threads,  15258 MiB Core
         ---------------------------------------------------------

  ==> Geometry <==

    Molecular point group: c1
    Full point group: C1

    Geometry (in Angstrom), charge = 0, multiplicity = 1:

       Center              X                  Y                   Z               Mass       
    ------------   -----------------  -----------------  -----------------  -----------------
         N           -1.011167028595    -1.500921116958     0.183144077161    14.003074004430
         C           -2.289787028595    -1.155344116958     0.532730077161    12.000000000000
         C           -2.590862028595     0.363057883042     0.512566077161    12.000000000000
         F           -3.231701028595     0.606541883042    -0.674268922839    18.998403162730
         F           -3.435259028595     0.648096883042     1.513769077161    18.998403162730
         C           -1.374668028595     1.326677883042     0.556073077161    12.000000000000
         C           -0.085552028595     0.754423883042     0.154193077161    12.000000000000
         C            1.030124971405     1.579934883042    -0.019734922839    12.000000000000
         C            2.261225971405     1.063878883042    -0.380171922839    12.000000000000
         C            2.400255971405    -0.319879116958    -0.578442922839    12.000000000000
         C            1.300590971405    -1.159927116958    -0.377057922839    12.000000000000
         C            0.063883971405    -0.631487116958    -0.022821922839    12.000000000000
         S            3.900348971405    -1.128400116958    -1.031658922839    31.972071174400
         C            5.146925971405     0.181728883042    -1.029554922839    12.000000000000
         O           -3.147909028595    -1.969438116958     0.781907077161    15.994914619570
         O           -1.553881028595     2.484926883042     0.859183077161    15.994914619570
         H            3.102237971405     1.735412883042    -0.497428922839     1.007825032230
         H            0.902385971405     2.646325883042     0.140187077161     1.007825032230
         H           -0.842585028595    -2.498107116958     0.126325077161     1.007825032230
         H            1.411679971405    -2.234269116958    -0.503731922839     1.007825032230
         H            5.944167971405    -0.157995116958    -1.693730922839     1.007825032230
         H            4.757962971405     1.105046883042    -1.463963922839     1.007825032230
         H            5.539144971405     0.372690883042    -0.028872922839     1.007825032230

  Running in c1 symmetry.

  Rotational constants: A =      0.03956  B =      0.00833  C =      0.00718 [cm^-1]
  Rotational constants: A =   1185.97056  B =    249.84195  C =    215.36057 [MHz]
  Nuclear repulsion = 1189.315137468699049

  Charge       = 0
  Multiplicity = 1
  Electrons    = 124
  Nalpha       = 62
  Nbeta        = 62

  ==> Algorithm <==

  SCF Algorithm Type is DF.
  DIIS enabled.
  MOM disabled.
  Fractional occupation disabled.
  Guess Type is SAD.
  Energy threshold   = 1.00e-06
  Density threshold  = 1.00e-06
  Integral threshold = 0.00e+00

  ==> Primary Basis <==

  Basis Set: 6-311++G**
    Blend: 6-311++G**
    Number of shells: 199
    Number of basis function: 409
    Number of Cartesian functions: 425
    Spherical Harmonics?: true
    Max angular momentum: 2

  ==> DFT Potential <==

   => Composite Functional: WB97X-D <= 

    wB97X-D Hyb-GGA Exchange-Correlation Functional

    J.-D. Chai and M. Head-Gordon, Phys. Chem. Chem. Phys. 10, 6615 (2008)

    Deriv               =              1
    GGA                 =           TRUE
    Meta                =          FALSE

    Exchange Hybrid     =           TRUE
    MP2 Hybrid          =          FALSE

   => Exchange-Correlation Functionals <=

    1.0000   wB97D range-separated functional

   => Exact (HF) Exchange <=

    0.7780            HF,LR [omega = 0.2000]
    0.2220               HF 

   => Molecular Quadrature <=

    Radial Scheme          =       TREUTLER
    Pruning Scheme         =           FLAT
    Nuclear Scheme         =       TREUTLER

    BS radius alpha        =              1
    Pruning alpha          =              1
    Radial Points          =             75
    Spherical Points       =            302
    Total Points           =         520867
    Total Blocks           =           3891
    Max Points             =            256
    Max Functions          =            323

   => WB97X-D: Empirical Dispersion <=

    Chai and Head-Gordon Dispersion Correction
    Chai, J.-D.; Head-Gordon, M. (2010), J. Chem. Phys., 132: 6615-6620

        s6 =       1.000000

   => Loading Basis Set <=

    Name: (6-311++G** AUX)
    Role: JKFIT
    Keyword: DF_BASIS_SCF
    atoms 1             entry N          line   224 file /fsx/users/francis/anaconda3/envs/poltype-dev/share/psi4/basis/aug-cc-pvtz-jkfit.gbs 
    atoms 2-3, 6-12, 14 entry C          line   162 file /fsx/users/francis/anaconda3/envs/poltype-dev/share/psi4/basis/aug-cc-pvtz-jkfit.gbs 
    atoms 4-5           entry F          line   348 file /fsx/users/francis/anaconda3/envs/poltype-dev/share/psi4/basis/aug-cc-pvtz-jkfit.gbs 
    atoms 13            entry S          line   730 file /fsx/users/francis/anaconda3/envs/poltype-dev/share/psi4/basis/aug-cc-pvtz-jkfit.gbs 
    atoms 15-16         entry O          line   286 file /fsx/users/francis/anaconda3/envs/poltype-dev/share/psi4/basis/aug-cc-pvtz-jkfit.gbs 
    atoms 17-23         entry H          line    70 file /fsx/users/francis/anaconda3/envs/poltype-dev/share/psi4/basis/aug-cc-pvtz-jkfit.gbs 

  ==> Pre-Iterations <==

   -------------------------------------------------------
    Irrep   Nso     Nmo     Nalpha   Nbeta   Ndocc  Nsocc
   -------------------------------------------------------
     A        409     409       0       0       0       0
   -------------------------------------------------------
    Total     409     409      62      62      62       0
   -------------------------------------------------------

  ==> Integral Setup <==

  ==> DiskDFJK: Density-Fitted J/K Matrices <==

    J tasked:                  Yes
    K tasked:                  Yes
    wK tasked:                 Yes
    Omega:               2.000E-01
    OpenMP threads:              8
    Integrals threads:           8
    Memory [MiB]:             7968
    Algorithm:                Core
    Integral Cache:           NONE
    Schwarz Cutoff:          1E-12
    Fitting Condition:       1E-10

   => Auxiliary Basis Set <=

  Basis Set: (6-311++G** AUX)
    Blend: AUG-CC-PVTZ-JKFIT
    Number of shells: 590
    Number of basis function: 2028
    Number of Cartesian functions: 2530
    Spherical Harmonics?: true
    Max angular momentum: 4

  Cached 100.0% of DFT collocation blocks in 3.394 [GiB].

  Minimum eigenvalue in the overlap matrix is 2.4942116728E-07.
  Using Symmetric Orthogonalization.

  SCF Guess: Superposition of Atomic Densities via on-the-fly atomic UHF.

  ==> Iterations <==

                           Total Energy        Delta E     RMS |[F,P]|

   @DF-RKS iter SAD: -1187.92406988629364   -1.18792e+03   0.00000e+00 
   @DF-RKS iter   1: -1187.71070897406821    2.13361e-01   2.90997e-03 DIIS
   @DF-RKS iter   2: -1187.75981008533040   -4.91011e-02   2.97479e-03 DIIS
   @DF-RKS iter   3: -1188.30454942121060   -5.44739e-01   6.53273e-04 DIIS
   @DF-RKS iter   4: -1188.32834560313268   -2.37962e-02   2.39033e-04 DIIS
   @DF-RKS iter   5: -1188.33238904444192   -4.04344e-03   6.25684e-05 DIIS
   @DF-RKS iter   6: -1188.33282210895914   -4.33065e-04   1.90017e-05 DIIS
   @DF-RKS iter   7: -1188.33287828019888   -5.61712e-05   8.06450e-06 DIIS
   @DF-RKS iter   8: -1188.33289471447074   -1.64343e-05   3.29499e-06 DIIS
   @DF-RKS iter   9: -1188.33289783895384   -3.12448e-06   1.49180e-06 DIIS
   @DF-RKS iter  10: -1188.33289818942899   -3.50475e-07   5.69888e-07 DIIS
  Energy and wave function converged.


  ==> Post-Iterations <==

    Orbital Energies [Eh]
    ---------------------

    Doubly Occupied:                                                      

       1A    -89.053598     2A    -24.840486     3A    -24.839098  
       4A    -19.270126     5A    -19.261119     6A    -14.516279  
       7A    -10.484808     8A    -10.436639     9A    -10.411481  
      10A    -10.390411    11A    -10.372166    12A    -10.340948  
      13A    -10.334473    14A    -10.330894    15A    -10.330341  
      16A    -10.324140    17A     -8.094246    18A     -6.043729  
      19A     -6.039267    20A     -6.033410    21A     -1.390076  
      22A     -1.328497    23A     -1.192656    24A     -1.180765  
      25A     -1.098382    26A     -1.006400    27A     -0.944742  
      28A     -0.907020    29A     -0.888610    30A     -0.868845  
      31A     -0.800015    32A     -0.765649    33A     -0.753775  
      34A     -0.745670    35A     -0.697495    36A     -0.683345  
      37A     -0.670340    38A     -0.646617    39A     -0.630729  
      40A     -0.593486    41A     -0.588342    42A     -0.569928  
      43A     -0.564067    44A     -0.558358    45A     -0.557758  
      46A     -0.552739    47A     -0.550311    48A     -0.534962  
      49A     -0.518330    50A     -0.515449    51A     -0.509572  
      52A     -0.499127    53A     -0.492504    54A     -0.488084  
      55A     -0.475609    56A     -0.444151    57A     -0.433397  
      58A     -0.399160    59A     -0.395691    60A     -0.364523  
      61A     -0.341615    62A     -0.319537  

    Virtual:                                                              

      63A     -0.042842    64A      0.012755    65A      0.025840  
      66A      0.033799    67A      0.046814    68A      0.052846  
      69A      0.059750    70A      0.065213    71A      0.069879  
      72A      0.073490    73A      0.079888    74A      0.085603  
      75A      0.095640    76A      0.100263    77A      0.103170  
      78A      0.104987    79A      0.111920    80A      0.118800  
      81A      0.126459    82A      0.127123    83A      0.130544  
      84A      0.137699    85A      0.143744    86A      0.149442  
      87A      0.152002    88A      0.156511    89A      0.157314  
      90A      0.167935    91A      0.172002    92A      0.173985  
      93A      0.177019    94A      0.178832    95A      0.181891  
      96A      0.187119    97A      0.191579    98A      0.197606  
      99A      0.198242   100A      0.202816   101A      0.205817  
     102A      0.207816   103A      0.214472   104A      0.216703  
     105A      0.219832   106A      0.227087   107A      0.232851  
     108A      0.234189   109A      0.237632   110A      0.245064  
     111A      0.250474   112A      0.255668   113A      0.257824  
     114A      0.265707   115A      0.270669   116A      0.277830  
     117A      0.277865   118A      0.287141   119A      0.288009  
     120A      0.293163   121A      0.294828   122A      0.301761  
     123A      0.308205   124A      0.313661   125A      0.315581  
     126A      0.317992   127A      0.323802   128A      0.329848  
     129A      0.333370   130A      0.343118   131A      0.343901  
     132A      0.347996   133A      0.355951   134A      0.361956  
     135A      0.366992   136A      0.373137   137A      0.374946  
     138A      0.380822   139A      0.385609   140A      0.387795  
     141A      0.394390   142A      0.403341   143A      0.407984  
     144A      0.412490   145A      0.424276   146A      0.430776  
     147A      0.437931   148A      0.441281   149A      0.449608  
     150A      0.461382   151A      0.465492   152A      0.473834  
     153A      0.476487   154A      0.489476   155A      0.491402  
     156A      0.502761   157A      0.508271   158A      0.519841  
     159A      0.533559   160A      0.539038   161A      0.546278  
     162A      0.559936   163A      0.564478   164A      0.582604  
     165A      0.589146   166A      0.604060   167A      0.610793  
     168A      0.617966   169A      0.632512   170A      0.640915  
     171A      0.648778   172A      0.653300   173A      0.657830  
     174A      0.660471   175A      0.673997   176A      0.685373  
     177A      0.709307   178A      0.714785   179A      0.720776  
     180A      0.733411   181A      0.740932   182A      0.749882  
     183A      0.752917   184A      0.756912   185A      0.759222  
     186A      0.768960   187A      0.777539   188A      0.790940  
     189A      0.805256   190A      0.809115   191A      0.818130  
     192A      0.825849   193A      0.840117   194A      0.860351  
     195A      0.871192   196A      0.876262   197A      0.891523  
     198A      0.896244   199A      0.914693   200A      0.919345  
     201A      0.935433   202A      0.947675   203A      0.951450  
     204A      0.967190   205A      0.973922   206A      0.980590  
     207A      0.993913   208A      1.001807   209A      1.008656  
     210A      1.028760   211A      1.040043   212A      1.047352  
     213A      1.054818   214A      1.063399   215A      1.095371  
     216A      1.106902   217A      1.119764   218A      1.134842  
     219A      1.146826   220A      1.170254   221A      1.178706  
     222A      1.186171   223A      1.192643   224A      1.209895  
     225A      1.221352   226A      1.235820   227A      1.254828  
     228A      1.268412   229A      1.276847   230A      1.291932  
     231A      1.298171   232A      1.316094   233A      1.332448  
     234A      1.333442   235A      1.355278   236A      1.386046  
     237A      1.400171   238A      1.455658   239A      1.492416  
     240A      1.503059   241A      1.513643   242A      1.525763  
     243A      1.532358   244A      1.547688   245A      1.564131  
     246A      1.573641   247A      1.582571   248A      1.589389  
     249A      1.600476   250A      1.609201   251A      1.612837  
     252A      1.618312   253A      1.639205   254A      1.646984  
     255A      1.649758   256A      1.671665   257A      1.679696  
     258A      1.697047   259A      1.705735   260A      1.711374  
     261A      1.729437   262A      1.751801   263A      1.767760  
     264A      1.783542   265A      1.784686   266A      1.804107  
     267A      1.811624   268A      1.829089   269A      1.842952  
     270A      1.851265   271A      1.878524   272A      1.890120  
     273A      1.897202   274A      1.930211   275A      1.940425  
     276A      1.956143   277A      1.992746   278A      2.000381  
     279A      2.004839   280A      2.013378   281A      2.033121  
     282A      2.034639   283A      2.063526   284A      2.070969  
     285A      2.090080   286A      2.094226   287A      2.111082  
     288A      2.123486   289A      2.133346   290A      2.157031  
     291A      2.195788   292A      2.204389   293A      2.230224  
     294A      2.246168   295A      2.271814   296A      2.285722  
     297A      2.304598   298A      2.319744   299A      2.340279  
     300A      2.348691   301A      2.427593   302A      2.484267  
     303A      2.511178   304A      2.519998   305A      2.531261  
     306A      2.548334   307A      2.567524   308A      2.593564  
     309A      2.629073   310A      2.651560   311A      2.655442  
     312A      2.697803   313A      2.751473   314A      2.770004  
     315A      2.788333   316A      2.798965   317A      2.806666  
     318A      2.823627   319A      2.834158   320A      2.845793  
     321A      2.867838   322A      2.888524   323A      2.891632  
     324A      2.908223   325A      2.926010   326A      2.938047  
     327A      2.966858   328A      2.974486   329A      2.998034  
     330A      3.027810   331A      3.037736   332A      3.052007  
     333A      3.068125   334A      3.082836   335A      3.119860  
     336A      3.125157   337A      3.165709   338A      3.195473  
     339A      3.289987   340A      3.293409   341A      3.329655  
     342A      3.366176   343A      3.410429   344A      3.429581  
     345A      3.436769   346A      3.485577   347A      3.533620  
     348A      3.546698   349A      3.598232   350A      3.631717  
     351A      3.649618   352A      3.686527   353A      3.703980  
     354A      3.770601   355A      3.791945   356A      3.832742  
     357A      3.848552   358A      3.855860   359A      3.866430  
     360A      3.900132   361A      3.926391   362A      3.952134  
     363A      3.971189   364A      4.007227   365A      4.025507  
     366A      4.080322   367A      4.137433   368A      4.188481  
     369A      4.244537   370A      4.283237   371A      4.362351  
     372A      4.513536   373A      4.819825   374A      4.891332  
     375A      4.917226   376A      5.036386   377A      5.157711  
     378A      5.166284   379A      5.194463   380A      5.323381  
     381A      5.327600   382A      5.834636   383A      5.879820  
     384A      6.476863   385A      6.498429   386A      6.511900  
     387A      6.552949   388A      6.652804   389A      6.891330  
     390A      8.095978   391A     17.439710   392A     17.618967  
     393A     17.652061   394A     23.630958   395A     23.743632  
     396A     23.968866   397A     24.000531   398A     24.018678  
     399A     24.033118   400A     24.036440   401A     24.134599  
     402A     24.192028   403A     24.278430   404A     35.755108  
     405A     50.133554   406A     50.155280   407A     66.907107  
     408A     66.965557   409A    189.358717  

    Final Occupation by Irrep:
              A 
    DOCC [    62 ]

  @DF-RKS Final Energy: -1188.33289818942899

   => Energetics <=

    Nuclear Repulsion Energy =           1189.3151374686990494
    One-Electron Energy =               -3993.5942810857695804
    Two-Electron Energy =                1705.7002269043723572
    DFT Exchange-Correlation Energy =     -89.7403763592800630
    Empirical Dispersion Energy =          -0.0136051174506653
    VV10 Nonlocal Energy =                  0.0000000000000000
    Total Energy =                      -1188.3328981894289882

Computation Completed


Properties will be evaluated at   0.000000,   0.000000,   0.000000 [a0]

Properties computed using the SCF density matrix

  Nuclear Dipole Moment: [e a0]
     X:    25.8860      Y:    -0.2980      Z:    -4.4878

  Electronic Dipole Moment: [e a0]
     X:   -22.7302      Y:    -0.1062      Z:     3.8347

  Dipole Moment: [e a0]
     X:     3.1558      Y:    -0.4042      Z:    -0.6531     Total:     3.2479

  Dipole Moment: [D]
     X:     8.0213      Y:    -1.0273      Z:    -1.6601     Total:     8.2554


*** tstop() called on cpu-spot-dy-c5n2xlarge-1 at Tue Jun 22 07:46:39 2021
Module time:
	user time   =     635.08 seconds =      10.58 minutes
	system time =      10.35 seconds =       0.17 minutes
	total time  =         88 seconds =       1.47 minutes
Total time:
	user time   =     635.08 seconds =      10.58 minutes
	system time =      10.35 seconds =       0.17 minutes
	total time  =         88 seconds =       1.47 minutes


Properties will be evaluated at   0.000000,   0.000000,   0.000000 [a0]
OEProp: No title given, name of density matrix used for the following properties is 'SCF density'


  Wiberg Bond Indices using Orthogonal Lowdin Orbitals:

  Irrep: 1 Size: 23 x 23

                 1                   2                   3                   4                   5

    1     0.00000000000000     1.31765245957147     0.10182776103779     0.01833804967630     0.01118245637288
    2     1.31765245957147     0.00000000000000     0.88311679915357     0.11216408979491     0.10822321742614
    3     0.10182776103779     0.88311679915357     0.00000000000000     1.32549866816668     1.39431540796527
    4     0.01833804967630     0.11216408979491     1.32549866816668     0.00000000000000     0.13752207928671
    5     0.01118245637288     0.10822321742614     1.39431540796527     0.13752207928671     0.00000000000000
    6     0.03432033928366     0.07495462812130     0.89714601166656     0.11188131938188     0.10537447670600
    7     0.11688263195374     0.03584250232054     0.10055433015645     0.01783483940933     0.01198578142716
    8     0.01516194604599     0.00376383808952     0.01366860122698     0.00248153592371     0.00200909052302
    9     0.01451642772242     0.00533189426077     0.00256245410198     0.00047225230351     0.00041088431390
   10     0.01733706208192     0.00307425041218     0.00153254520239     0.00085806371203     0.00028287341812
   11     0.13409566806430     0.02670172701744     0.00444056778892     0.00093487343775     0.00046478278848
   12     1.18893042109250     0.09742948364124     0.03207358417618     0.00790212004997     0.00372291093923
   13     0.00286683894661     0.00102717898621     0.00069748647794     0.00052557327326     0.00015038022073
   14     0.00048146588507     0.00016754823177     0.00009041070028     0.00002485253631     0.00001789198098
   15     0.24654649527827     2.29420909163597     0.15049612240343     0.03250775584421     0.04310019390868
   16     0.00474215805345     0.01647110829838     0.15919290953284     0.03563706947935     0.04598055418397
   17     0.00071613303083     0.00022395141996     0.00047670253117     0.00005281067854     0.00007978620983
   18     0.00129039515417     0.00048865916990     0.00210611083403     0.00028934917568     0.00039331087035
   19     0.91355073134303     0.07292174463118     0.01380278957141     0.00154357022033     0.00195953037341
   20     0.02336258700409     0.00231922072231     0.00074161453560     0.00010271687014     0.00012330079688
   21     0.00008349650530     0.00002909508226     0.00001467430546     0.00000272085251     0.00000313899635
   22     0.00009191059666     0.00003493879182     0.00004586863400     0.00000968491571     0.00000696557407
   23     0.00009274798311     0.00004339936335     0.00002636965174     0.00001549224703     0.00000639060060

                 6                   7                   8                   9                  10

    1     0.03432033928366     0.11688263195374     0.01516194604599     0.01451642772242     0.01733706208192
    2     0.07495462812130     0.03584250232054     0.00376383808952     0.00533189426077     0.00307425041218
    3     0.89714601166656     0.10055433015645     0.01366860122698     0.00256245410198     0.00153254520239
    4     0.11188131938188     0.01783483940933     0.00248153592371     0.00047225230351     0.00085806371203
    5     0.10537447670600     0.01198578142716     0.00200909052302     0.00041088431390     0.00028287341812
    6     0.00000000000000     1.06458955221996     0.12060203073675     0.02037197171621     0.01500781316961
    7     1.06458955221996     0.00000000000000     1.34224518732788     0.13208485975128     0.10780247707497
    8     0.12060203073675     1.34224518732788     0.00000000000000     1.50479217621647     0.13578899578290
    9     0.02037197171621     0.13208485975128     1.50479217621647     0.00000000000000     1.37188977549905
   10     0.01500781316961     0.10780247707497     0.13578899578290     1.37188977549905     0.00000000000000
   11     0.01585258308372     0.11965379258534     0.12121641001551     0.12532536437172     1.41742818332106
   12     0.11438082236190     1.27460338498871     0.12393728352620     0.10769498306781     0.12981891279597
   13     0.00650233480293     0.02222642637708     0.02515519136214     0.14338547156018     1.30740834836520
   14     0.00032679343137     0.00167332459678     0.00437737169171     0.04734484235727     0.08240945540698
   15     0.01586897494065     0.00894994476926     0.00107513955577     0.00449031626195     0.00197511885402
   16     2.31697135381028     0.16507436609800     0.07458189885668     0.00626574530437     0.01593937253573
   17     0.00149082645568     0.01232712987459     0.08350872055302     0.85948776186228     0.07402968515165
   18     0.02019819052621     0.07702375918298     0.85237066355045     0.08058929911447     0.01216792319474
   19     0.00262096324156     0.01262483693783     0.00171342953965     0.00135401756330     0.00198424175291
   20     0.00170570528976     0.01147438685778     0.00557237745598     0.01257079035548     0.07585979443012
   21     0.00003490609005     0.00017648747220     0.00028124851304     0.00281888104226     0.01204327774767
   22     0.00017259967755     0.00086955932780     0.00191580753835     0.02140798537282     0.01836560564910
   23     0.00016948924588     0.00061977957524     0.00042645178869     0.00718934836731     0.01067164320108

                11                  12                  13                  14                  15

    1     0.13409566806430     1.18893042109250     0.00286683894661     0.00048146588507     0.24654649527827
    2     0.02670172701744     0.09742948364124     0.00102717898621     0.00016754823177     2.29420909163597
    3     0.00444056778892     0.03207358417618     0.00069748647794     0.00009041070028     0.15049612240343
    4     0.00093487343775     0.00790212004997     0.00052557327326     0.00002485253631     0.03250775584421
    5     0.00046478278848     0.00372291093923     0.00015038022073     0.00001789198098     0.04310019390868
    6     0.01585258308372     0.11438082236190     0.00650233480293     0.00032679343137     0.01586897494065
    7     0.11965379258534     1.27460338498871     0.02222642637708     0.00167332459678     0.00894994476926
    8     0.12121641001551     0.12393728352620     0.02515519136214     0.00437737169171     0.00107513955577
    9     0.12532536437172     0.10769498306781     0.14338547156018     0.04734484235727     0.00449031626195
   10     1.41742818332106     0.12981891279597     1.30740834836520     0.08240945540698     0.00197511885402
   11     0.00000000000000     1.39033357531386     0.18290769585829     0.01871983756171     0.01241392206610
   12     1.39033357531386     0.00000000000000     0.02580605121833     0.00315373361623     0.03053231428420
   13     0.18290769585829     0.02580605121833     0.00000000000000     1.24395252088803     0.00083566884321
   14     0.01871983756171     0.00315373361623     1.24395252088803     0.00000000000000     0.00010167228586
   15     0.01241392206610     0.03053231428420     0.00083566884321     0.00010167228586     0.00000000000000
   16     0.00483692580997     0.04132589975511     0.00681376690708     0.00026600158614     0.00603322579688
   17     0.01213090102897     0.00524195841419     0.02048578018415     0.02295620564346     0.00016837224047
   18     0.00530708074361     0.01197147856963     0.00217834266751     0.00045419998103     0.00019272739636
   19     0.02035233264628     0.06550969088843     0.00033893781231     0.00006880346036     0.02828814952104
   20     0.85012732064634     0.07795486037746     0.03265107472377     0.00258299613039     0.00066765269547
   21     0.00200893096924     0.00048617083538     0.07381421366151     0.94256344563459     0.00001817935047
   22     0.00226039466858     0.00046816829537     0.05976627534876     0.93234845821254     0.00001860376228
   23     0.00212494907323     0.00059907990613     0.06753674873212     0.94493137813003     0.00004488105024

                16                  17                  18                  19                  20

    1     0.00474215805345     0.00071613303083     0.00129039515417     0.91355073134303     0.02336258700409
    2     0.01647110829838     0.00022395141996     0.00048865916990     0.07292174463118     0.00231922072231
    3     0.15919290953284     0.00047670253117     0.00210611083403     0.01380278957141     0.00074161453560
    4     0.03563706947935     0.00005281067854     0.00028934917568     0.00154357022033     0.00010271687014
    5     0.04598055418397     0.00007978620983     0.00039331087035     0.00195953037341     0.00012330079688
    6     2.31697135381028     0.00149082645568     0.02019819052621     0.00262096324156     0.00170570528976
    7     0.16507436609800     0.01232712987459     0.07702375918298     0.01262483693783     0.01147438685778
    8     0.07458189885668     0.08350872055302     0.85237066355045     0.00171342953965     0.00557237745598
    9     0.00626574530437     0.85948776186228     0.08058929911447     0.00135401756330     0.01257079035548
   10     0.01593937253573     0.07402968515165     0.01216792319474     0.00198424175291     0.07585979443012
   11     0.00483692580997     0.01213090102897     0.00530708074361     0.02035233264628     0.85012732064634
   12     0.04132589975511     0.00524195841419     0.01197147856963     0.06550969088843     0.07795486037746
   13     0.00681376690708     0.02048578018415     0.00217834266751     0.00033893781231     0.03265107472377
   14     0.00026600158614     0.02295620564346     0.00045419998103     0.00006880346036     0.00258299613039
   15     0.00603322579688     0.00016837224047     0.00019272739636     0.02828814952104     0.00066765269547
   16     0.00000000000000     0.00038442388457     0.02065414282486     0.00051432343193     0.00060060675141
   17     0.00038442388457     0.00000000000000     0.01037384590949     0.00010701719150     0.00117464935192
   18     0.02065414282486     0.01037384590949     0.00000000000000     0.00060794298690     0.00048092555238
   19     0.00051432343193     0.00010701719150     0.00060794298690     0.00000000000000     0.00647645549295
   20     0.00060060675141     0.00117464935192     0.00048092555238     0.00647645549295     0.00000000000000
   21     0.00002363368593     0.00132026967310     0.00004799004769     0.00000878526935     0.00029712055220
   22     0.00015972698918     0.01334824755192     0.00015162746743     0.00001537917160     0.00053728470705
   23     0.00018506063045     0.00288970747288     0.00003914630589     0.00001062738344     0.00030799840175

                21                  22                  23

    1     0.00008349650530     0.00009191059666     0.00009274798311
    2     0.00002909508226     0.00003493879182     0.00004339936335
    3     0.00001467430546     0.00004586863400     0.00002636965174
    4     0.00000272085251     0.00000968491571     0.00001549224703
    5     0.00000313899635     0.00000696557407     0.00000639060060
    6     0.00003490609005     0.00017259967755     0.00016948924588
    7     0.00017648747220     0.00086955932780     0.00061977957524
    8     0.00028124851304     0.00191580753835     0.00042645178869
    9     0.00281888104226     0.02140798537282     0.00718934836731
   10     0.01204327774767     0.01836560564910     0.01067164320108
   11     0.00200893096924     0.00226039466858     0.00212494907323
   12     0.00048617083538     0.00046816829537     0.00059907990613
   13     0.07381421366151     0.05976627534876     0.06753674873212
   14     0.94256344563459     0.93234845821254     0.94493137813003
   15     0.00001817935047     0.00001860376228     0.00004488105024
   16     0.00002363368593     0.00015972698918     0.00018506063045
   17     0.00132026967310     0.01334824755192     0.00288970747288
   18     0.00004799004769     0.00015162746743     0.00003914630589
   19     0.00000878526935     0.00001537917160     0.00001062738344
   20     0.00029712055220     0.00053728470705     0.00030799840175
   21     0.00000000000000     0.04350228702497     0.04035570679869
   22     0.04350228702497     0.00000000000000     0.03882004879733
   23     0.04035570679869     0.03882004879733     0.00000000000000



  Atomic Valences: 

 #  #
 Irrep: 1
      1:  4.1640702
      2:  5.0561908
      3:  5.0844278
      4:  1.8065995
      5:  1.8673154
      6:  4.9405437
      7:  4.6371193
      8:  4.4366454
      9:  4.4723575
     10:  4.8136754
     11:  4.4696378
     12:  4.7338769
     13:  3.2270323
     14:  4.2490132
     15:  2.8785345
     16:  2.9226543
     17:  1.1229749
     18:  1.0993771
     19:  1.1463743
     20:  1.1076914
     21:  1.1199347
     22:  1.1343174
     23:  1.1171064


    Psi4 stopped on: Tuesday, 22 June 2021 07:46AM
    Psi4 wall time for execution: 0:01:27.79

*** Psi4 exiting successfully. Buy a developer a beer!
