
    -----------------------------------------------------------------------
          Psi4: An Open-Source Ab Initio Electronic Structure Package
                               Psi4 1.3.2 release

                         Git: Rev {HEAD} ecbda83 


    R. M. Parrish, L. A. Burns, D. G. A. Smith, A. C. Simmonett,
    A. E. DePrince III, E. G. Hohenstein, U. Bozkaya, A. Yu. Sokolov,
    R. Di Remigio, R. M. Richard, J. F. Gonthier, A. M. James,
    H. R. McAlexander, A. Kumar, M. Saitow, X. Wang, B. P. Pritchard,
    P. Verma, H. F. Schaefer III, K. Patkowski, R. A. King, E. F. Valeev,
    F. A. Evangelista, J. M. Turney, T. D. Crawford, and C. D. Sherrill,
    J. Chem. Theory Comput. 13(7) pp 3185--3197 (2017).
    (doi: 10.1021/acs.jctc.7b00174)


                         Additional Contributions by
    P. Kraus, H. Kruse, M. H. Lechner, M. C. Schieber, R. A. Shaw,
    A. Alenaizan, R. Galvelis, Z. L. Glick, S. Lehtola, and J. P. Misiewicz

    -----------------------------------------------------------------------


    Psi4 started on: Tuesday, 22 June 2021 12:54AM

    Process ID: 19158
    Host:       cpu-spot-dy-c5n2xlarge-1
    PSIDATADIR: /fsx/users/francis/anaconda3/envs/poltype-dev/share/psi4
    Memory:     500.0 MiB
    Threads:    1
    
  ==> Input File <==

--------------------------------------------------------------------------
molecule { 
0 1
 N   -0.811999   -1.418497   -0.045337
 C   -2.165035   -1.204031   -0.069159
 C   -2.627565    0.279190    0.115866
 F   -3.418123    0.604803   -0.963830
 F   -3.405910    0.329759    1.250436
 C   -1.509882    1.371753    0.247019
 C   -0.100665    0.916006    0.247226
 C    0.947423    1.854308    0.381220
 C    2.285897    1.442929    0.393322
 C    2.611167    0.069799    0.248300
 C    1.566364   -0.870130    0.114447
 C    0.220678   -0.463026    0.108263
 S    4.262085   -0.564491    0.272302
 C    4.804996   -0.391703   -1.446124
 O   -2.936810   -2.140090   -0.220774
 O   -1.807796    2.557612    0.355420
 H    3.062006    2.196459    0.524549
 H    0.687331    2.908509    0.481478
 H   -0.577470   -2.394859   -0.161663
 H    1.806625   -1.930133    0.021053
 H    4.204286   -1.049025   -2.082400
 H    4.681039    0.647690   -1.765672
 H    5.859390   -0.674887   -1.516903
}
set optking { 
  frozen_dihedral = ("
    11 10 13 14
    9 10 13 14
    21 14 13 10
  ")
}
set {
  geom_maxiter 400
  g_convergence GAU_LOOSE
  dynamic_level 1
}
memory 16GB
set_num_threads(8)
psi4_io.set_default_path("/scratch/Psi4-ligand")
for _ in range(1):
  try:
    set opt_coordinates both
    optimize('wb97x-d/6-31+G*')
    break
  except OptimizationConvergenceError:
    break
  else:
    try:
      set opt_coordinates cartesian
      optimize('wb97x-d/6-31+G*')
      break
    except OptimizationConvergenceError:
      pass
clean()
--------------------------------------------------------------------------

  Memory set to  14.901 GiB by Python driver.
  Threads set to 8 by Python driver.
gradient() will perform analytic gradient computation.

*** tstart() called on cpu-spot-dy-c5n2xlarge-1
*** at Tue Jun 22 00:54:26 2021

   => Loading Basis Set <=

    Name: 6-31+G*
    Role: ORBITAL
    Keyword: BASIS
    atoms 1             entry N          line   138 file /fsx/users/francis/anaconda3/envs/poltype-dev/share/psi4/basis/6-31pgs.gbs 
    atoms 2-3, 6-12, 14 entry C          line   119 file /fsx/users/francis/anaconda3/envs/poltype-dev/share/psi4/basis/6-31pgs.gbs 
    atoms 4-5           entry F          line   176 file /fsx/users/francis/anaconda3/envs/poltype-dev/share/psi4/basis/6-31pgs.gbs 
    atoms 13            entry S          line   344 file /fsx/users/francis/anaconda3/envs/poltype-dev/share/psi4/basis/6-31pgs.gbs 
    atoms 15-16         entry O          line   157 file /fsx/users/francis/anaconda3/envs/poltype-dev/share/psi4/basis/6-31pgs.gbs 
    atoms 17-23         entry H          line    46 file /fsx/users/francis/anaconda3/envs/poltype-dev/share/psi4/basis/6-31pgs.gbs 


         ---------------------------------------------------------
                                   SCF
               by Justin Turney, Rob Parrish, Andy Simmonett
                          and Daniel G. A. Smith
                              RKS Reference
                        8 Threads,  15258 MiB Core
         ---------------------------------------------------------

  ==> Geometry <==

    Molecular point group: c1
    Full point group: C1

    Geometry (in Angstrom), charge = 0, multiplicity = 1:

       Center              X                  Y                   Z               Mass       
    ------------   -----------------  -----------------  -----------------  -----------------
         N           -0.859896899645    -1.510197441065    -0.107965251489    14.003074004430
         C           -2.212932899645    -1.295731441065    -0.131787251489    12.000000000000
         C           -2.675462899645     0.187489558935     0.053237748511    12.000000000000
         F           -3.466020899645     0.513102558935    -1.026458251489    18.998403162730
         F           -3.453807899645     0.238058558935     1.187807748511    18.998403162730
         C           -1.557779899645     1.280052558935     0.184390748511    12.000000000000
         C           -0.148562899645     0.824305558935     0.184597748511    12.000000000000
         C            0.899525100355     1.762607558935     0.318591748511    12.000000000000
         C            2.237999100355     1.351228558935     0.330693748511    12.000000000000
         C            2.563269100355    -0.021901441065     0.185671748511    12.000000000000
         C            1.518466100355    -0.961830441065     0.051818748511    12.000000000000
         C            0.172780100355    -0.554726441065     0.045634748511    12.000000000000
         S            4.214187100355    -0.656191441065     0.209673748511    31.972071174400
         C            4.757098100355    -0.483403441065    -1.508752251489    12.000000000000
         O           -2.984707899645    -2.231790441065    -0.283402251489    15.994914619570
         O           -1.855693899645     2.465911558935     0.292791748511    15.994914619570
         H            3.014108100355     2.104758558935     0.461920748511     1.007825032230
         H            0.639433100355     2.816808558935     0.418849748511     1.007825032230
         H           -0.625367899645    -2.486559441065    -0.224291251489     1.007825032230
         H            1.758727100355    -2.021833441065    -0.041575251489     1.007825032230
         H            4.156388100355    -1.140725441065    -2.145028251489     1.007825032230
         H            4.633141100354     0.555989558935    -1.828300251489     1.007825032230
         H            5.811492100355    -0.766587441065    -1.579531251489     1.007825032230

  Running in c1 symmetry.

  Rotational constants: A =      0.03619  B =      0.00831  C =      0.00724 [cm^-1]
  Rotational constants: A =   1084.84667  B =    249.01362  C =    217.15022 [MHz]
  Nuclear repulsion = 1177.487589800012984

  Charge       = 0
  Multiplicity = 1
  Electrons    = 124
  Nalpha       = 62
  Nbeta        = 62

  ==> Algorithm <==

  SCF Algorithm Type is DF.
  DIIS enabled.
  MOM disabled.
  Fractional occupation disabled.
  Guess Type is SAD.
  Energy threshold   = 1.00e-08
  Density threshold  = 1.00e-08
  Integral threshold = 0.00e+00

  ==> Primary Basis <==

  Basis Set: 6-31+G*
    Blend: 6-31+G*
    Number of shells: 144
    Number of basis function: 322
    Number of Cartesian functions: 322
    Spherical Harmonics?: false
    Max angular momentum: 2

  ==> DFT Potential <==

   => Composite Functional: WB97X-D <= 

    wB97X-D Hyb-GGA Exchange-Correlation Functional

    J.-D. Chai and M. Head-Gordon, Phys. Chem. Chem. Phys. 10, 6615 (2008)

    Deriv               =              1
    GGA                 =           TRUE
    Meta                =          FALSE

    Exchange Hybrid     =           TRUE
    MP2 Hybrid          =          FALSE

   => Exchange-Correlation Functionals <=

    1.0000   wB97D range-separated functional

   => Exact (HF) Exchange <=

    0.7780            HF,LR [omega = 0.2000]
    0.2220               HF 

   => Molecular Quadrature <=

    Radial Scheme          =       TREUTLER
    Pruning Scheme         =           FLAT
    Nuclear Scheme         =       TREUTLER

    BS radius alpha        =              1
    Pruning alpha          =              1
    Radial Points          =             75
    Spherical Points       =            302
    Total Points           =         520864
    Total Blocks           =           3837
    Max Points             =            256
    Max Functions          =            278

   => WB97X-D: Empirical Dispersion <=

    Chai and Head-Gordon Dispersion Correction
    Chai, J.-D.; Head-Gordon, M. (2010), J. Chem. Phys., 132: 6615-6620

        s6 =       1.000000

   => Loading Basis Set <=

    Name: (6-31+G* AUX)
    Role: JKFIT
    Keyword: DF_BASIS_SCF
    atoms 1             entry N          line   252 file /fsx/users/francis/anaconda3/envs/poltype-dev/share/psi4/basis/heavy-aug-cc-pvdz-jkfit.gbs 
    atoms 2-3, 6-12, 14 entry C          line   194 file /fsx/users/francis/anaconda3/envs/poltype-dev/share/psi4/basis/heavy-aug-cc-pvdz-jkfit.gbs 
    atoms 4-5           entry F          line   368 file /fsx/users/francis/anaconda3/envs/poltype-dev/share/psi4/basis/heavy-aug-cc-pvdz-jkfit.gbs 
    atoms 13            entry S          line   730 file /fsx/users/francis/anaconda3/envs/poltype-dev/share/psi4/basis/heavy-aug-cc-pvdz-jkfit.gbs 
    atoms 15-16         entry O          line   310 file /fsx/users/francis/anaconda3/envs/poltype-dev/share/psi4/basis/heavy-aug-cc-pvdz-jkfit.gbs 
    atoms 17-23         entry H          line   116 file /fsx/users/francis/anaconda3/envs/poltype-dev/share/psi4/basis/heavy-aug-cc-pvdz-jkfit.gbs 

  ==> Pre-Iterations <==

   -------------------------------------------------------
    Irrep   Nso     Nmo     Nalpha   Nbeta   Ndocc  Nsocc
   -------------------------------------------------------
     A        322     322       0       0       0       0
   -------------------------------------------------------
    Total     322     322      62      62      62       0
   -------------------------------------------------------

  ==> Integral Setup <==

  ==> DiskDFJK: Density-Fitted J/K Matrices <==

    J tasked:                  Yes
    K tasked:                  Yes
    wK tasked:                 Yes
    Omega:               2.000E-01
    OpenMP threads:              8
    Integrals threads:           8
    Memory [MiB]:             8436
    Algorithm:                Core
    Integral Cache:           NONE
    Schwarz Cutoff:          1E-12
    Fitting Condition:       1E-10

   => Auxiliary Basis Set <=

  Basis Set: (6-31+G* AUX)
    Blend: HEAVY-AUG-CC-PVDZ-JKFIT
    Number of shells: 523
    Number of basis function: 1840
    Number of Cartesian functions: 1840
    Spherical Harmonics?: false
    Max angular momentum: 3

  Cached 100.0% of DFT collocation blocks in 2.937 [GiB].

  Minimum eigenvalue in the overlap matrix is 6.1748312576E-07.
  Using Symmetric Orthogonalization.

  SCF Guess: Superposition of Atomic Densities via on-the-fly atomic UHF.

  ==> Iterations <==

                           Total Energy        Delta E     RMS |[F,P]|

   @DF-RKS iter SAD: -1187.21049612063257   -1.18721e+03   0.00000e+00 
   @DF-RKS iter   1: -1187.62181194355367   -4.11316e-01   3.22934e-03 DIIS
   @DF-RKS iter   2: -1187.62937063935965   -7.55870e-03   3.52571e-03 DIIS
   @DF-RKS iter   3: -1188.08217947202911   -4.52809e-01   8.32821e-04 DIIS
   @DF-RKS iter   4: -1188.11021742611570   -2.80380e-02   2.02078e-04 DIIS
   @DF-RKS iter   5: -1188.11203709893175   -1.81967e-03   6.12845e-05 DIIS
   @DF-RKS iter   6: -1188.11224060885752   -2.03510e-04   2.00836e-05 DIIS
   @DF-RKS iter   7: -1188.11226300590351   -2.23970e-05   6.20626e-06 DIIS
   @DF-RKS iter   8: -1188.11226721208709   -4.20618e-06   2.29908e-06 DIIS
   @DF-RKS iter   9: -1188.11226803501791   -8.22931e-07   1.57320e-06 DIIS
   @DF-RKS iter  10: -1188.11226824425398   -2.09236e-07   4.76933e-07 DIIS
   @DF-RKS iter  11: -1188.11226828101576   -3.67618e-08   2.00697e-07 DIIS
   @DF-RKS iter  12: -1188.11226828644703   -5.43127e-09   9.03933e-08 DIIS
   @DF-RKS iter  13: -1188.11226828779240   -1.34537e-09   3.76993e-08 DIIS
   @DF-RKS iter  14: -1188.11226828792996   -1.37561e-10   1.75412e-08 DIIS
   @DF-RKS iter  15: -1188.11226828796839   -3.84262e-11   7.14802e-09 DIIS
  Energy and wave function converged.


  ==> Post-Iterations <==

    Orbital Energies [Eh]
    ---------------------

    Doubly Occupied:                                                      

       1A    -89.069729     2A    -24.878253     3A    -24.877011  
       4A    -19.313689     5A    -19.297221     6A    -14.546137  
       7A    -10.515377     8A    -10.462098     9A    -10.442644  
      10A    -10.414098    11A    -10.384842    12A    -10.362822  
      13A    -10.357527    14A    -10.356869    15A    -10.349652  
      16A    -10.348179    17A     -8.087218    18A     -6.038110  
      19A     -6.033873    20A     -6.026810    21A     -1.385984  
      22A     -1.329574    23A     -1.192477    24A     -1.182373  
      25A     -1.095827    26A     -1.000948    27A     -0.939216  
      28A     -0.904731    29A     -0.889612    30A     -0.867874  
      31A     -0.793952    32A     -0.767568    33A     -0.754776  
      34A     -0.741361    35A     -0.696958    36A     -0.681138  
      37A     -0.670206    38A     -0.646058    39A     -0.630549  
      40A     -0.591784    41A     -0.580096    42A     -0.568682  
      43A     -0.564181    44A     -0.559281    45A     -0.556033  
      46A     -0.553346    47A     -0.539850    48A     -0.536799  
      49A     -0.530415    50A     -0.520182    51A     -0.511736  
      52A     -0.502759    53A     -0.496782    54A     -0.480378  
      55A     -0.476528    56A     -0.442619    57A     -0.420927  
      58A     -0.399918    59A     -0.373612    60A     -0.368222  
      61A     -0.340612    62A     -0.333252  

    Virtual:                                                              

      63A     -0.056674    64A      0.008420    65A      0.037984  
      66A      0.043755    67A      0.058222    68A      0.059760  
      69A      0.063820    70A      0.070827    71A      0.076805  
      72A      0.089098    73A      0.092613    74A      0.095198  
      75A      0.105110    76A      0.111296    77A      0.113989  
      78A      0.116536    79A      0.122554    80A      0.132865  
      81A      0.136134    82A      0.137832    83A      0.142514  
      84A      0.147981    85A      0.153825    86A      0.161105  
      87A      0.167205    88A      0.171652    89A      0.176046  
      90A      0.178772    91A      0.182758    92A      0.186435  
      93A      0.195084    94A      0.197983    95A      0.200991  
      96A      0.204783    97A      0.207976    98A      0.217235  
      99A      0.220936   100A      0.228844   101A      0.231602  
     102A      0.235011   103A      0.240842   104A      0.246072  
     105A      0.247174   106A      0.248890   107A      0.254544  
     108A      0.259835   109A      0.263657   110A      0.271116  
     111A      0.274132   112A      0.281145   113A      0.286063  
     114A      0.293310   115A      0.297040   116A      0.298052  
     117A      0.304912   118A      0.314026   119A      0.314950  
     120A      0.316788   121A      0.325382   122A      0.328057  
     123A      0.328817   124A      0.340100   125A      0.351901  
     126A      0.357324   127A      0.362885   128A      0.369258  
     129A      0.377894   130A      0.378337   131A      0.389063  
     132A      0.391637   133A      0.394739   134A      0.397100  
     135A      0.407721   136A      0.412066   137A      0.421223  
     138A      0.430774   139A      0.439552   140A      0.444940  
     141A      0.454904   142A      0.464892   143A      0.473451  
     144A      0.495115   145A      0.500761   146A      0.507576  
     147A      0.525064   148A      0.530244   149A      0.537131  
     150A      0.548443   151A      0.559699   152A      0.576669  
     153A      0.587104   154A      0.602112   155A      0.610221  
     156A      0.638113   157A      0.663208   158A      0.671429  
     159A      0.695610   160A      0.708591   161A      0.724175  
     162A      0.734471   163A      0.746960   164A      0.751797  
     165A      0.768423   166A      0.780214   167A      0.793552  
     168A      0.795799   169A      0.807011   170A      0.823299  
     171A      0.824842   172A      0.867553   173A      0.873336  
     174A      0.879594   175A      0.883374   176A      0.901200  
     177A      0.912058   178A      0.916077   179A      0.937423  
     180A      0.948101   181A      0.957583   182A      0.970603  
     183A      0.974347   184A      0.984187   185A      1.013211  
     186A      1.027210   187A      1.034465   188A      1.049818  
     189A      1.065874   190A      1.069067   191A      1.074045  
     192A      1.089637   193A      1.109615   194A      1.143752  
     195A      1.161640   196A      1.168707   197A      1.191585  
     198A      1.199246   199A      1.208138   200A      1.220103  
     201A      1.230003   202A      1.231353   203A      1.261646  
     204A      1.278025   205A      1.284311   206A      1.316703  
     207A      1.321447   208A      1.331731   209A      1.342897  
     210A      1.376487   211A      1.398590   212A      1.403395  
     213A      1.414795   214A      1.416658   215A      1.433437  
     216A      1.447029   217A      1.454694   218A      1.463076  
     219A      1.465543   220A      1.482886   221A      1.503297  
     222A      1.517346   223A      1.519708   224A      1.530235  
     225A      1.560230   226A      1.603041   227A      1.619933  
     228A      1.645005   229A      1.658864   230A      1.665800  
     231A      1.705181   232A      1.744062   233A      1.749715  
     234A      1.753929   235A      1.757607   236A      1.775448  
     237A      1.777779   238A      1.782655   239A      1.808332  
     240A      1.815885   241A      1.834437   242A      1.856642  
     243A      1.869600   244A      1.890822   245A      1.896661  
     246A      1.902682   247A      1.915093   248A      1.945031  
     249A      1.958649   250A      1.962538   251A      1.969003  
     252A      2.004133   253A      2.033836   254A      2.040894  
     255A      2.053718   256A      2.057177   257A      2.074411  
     258A      2.086563   259A      2.096843   260A      2.111119  
     261A      2.140258   262A      2.147661   263A      2.162162  
     264A      2.202097   265A      2.203243   266A      2.208176  
     267A      2.247073   268A      2.251672   269A      2.265845  
     270A      2.277790   271A      2.301552   272A      2.304945  
     273A      2.330823   274A      2.338061   275A      2.346764  
     276A      2.362654   277A      2.376870   278A      2.399100  
     279A      2.459969   280A      2.461199   281A      2.506839  
     282A      2.511121   283A      2.564101   284A      2.623391  
     285A      2.651096   286A      2.672257   287A      2.699857  
     288A      2.723733   289A      2.731314   290A      2.760883  
     291A      2.764286   292A      2.818370   293A      2.825005  
     294A      2.848502   295A      2.893291   296A      2.940777  
     297A      2.960392   298A      3.023150   299A      3.116175  
     300A      3.150274   301A      3.208034   302A      3.230662  
     303A      3.333517   304A      3.373579   305A      3.459290  
     306A      3.480984   307A      4.049276   308A      4.274236  
     309A      4.328495   310A      4.340365   311A      4.360522  
     312A      4.371356   313A      4.413004   314A      4.465739  
     315A      4.479283   316A      4.525642   317A      4.576033  
     318A      4.775408   319A      4.833906   320A      5.105580  
     321A      5.696219   322A      7.132827  

    Final Occupation by Irrep:
              A 
    DOCC [    62 ]

  @DF-RKS Final Energy: -1188.11226828796839

   => Energetics <=

    Nuclear Repulsion Energy =           1177.4875898000129837
    One-Electron Energy =               -3968.9705821275256312
    Two-Electron Energy =                1692.8303928168927541
    DFT Exchange-Correlation Energy =     -89.4462649673661616
    Empirical Dispersion Energy =          -0.0134038099820956
    VV10 Nonlocal Energy =                  0.0000000000000000
    Total Energy =                      -1188.1122682879683907

Computation Completed


Properties will be evaluated at   0.000000,   0.000000,   0.000000 [a0]

Properties computed using the SCF density matrix

  Nuclear Dipole Moment: [e a0]
     X:    24.7939      Y:    -1.5999      Z:    -4.7755

  Electronic Dipole Moment: [e a0]
     X:   -22.1827      Y:     1.2357      Z:     4.1606

  Dipole Moment: [e a0]
     X:     2.6112      Y:    -0.3642      Z:    -0.6149     Total:     2.7072

  Dipole Moment: [D]
     X:     6.6369      Y:    -0.9258      Z:    -1.5628     Total:     6.8810


*** tstop() called on cpu-spot-dy-c5n2xlarge-1 at Tue Jun 22 00:55:38 2021
Module time:
	user time   =     541.18 seconds =       9.02 minutes
	system time =       9.64 seconds =       0.16 minutes
	total time  =         72 seconds =       1.20 minutes
Total time:
	user time   =     541.18 seconds =       9.02 minutes
	system time =       9.64 seconds =       0.16 minutes
	total time  =         72 seconds =       1.20 minutes

*** tstart() called on cpu-spot-dy-c5n2xlarge-1
*** at Tue Jun 22 00:55:38 2021


         ------------------------------------------------------------
                                   SCF GRAD                          
                          Rob Parrish, Justin Turney,                
                       Andy Simmonett, and Alex Sokolov              
         ------------------------------------------------------------

  ==> Geometry <==

    Molecular point group: c1
    Full point group: C1

    Geometry (in Angstrom), charge = 0, multiplicity = 1:

       Center              X                  Y                   Z               Mass       
    ------------   -----------------  -----------------  -----------------  -----------------
         N           -0.859896899645    -1.510197441065    -0.107965251489    14.003074004430
         C           -2.212932899645    -1.295731441065    -0.131787251489    12.000000000000
         C           -2.675462899645     0.187489558935     0.053237748511    12.000000000000
         F           -3.466020899645     0.513102558935    -1.026458251489    18.998403162730
         F           -3.453807899645     0.238058558935     1.187807748511    18.998403162730
         C           -1.557779899645     1.280052558935     0.184390748511    12.000000000000
         C           -0.148562899645     0.824305558935     0.184597748511    12.000000000000
         C            0.899525100355     1.762607558935     0.318591748511    12.000000000000
         C            2.237999100355     1.351228558935     0.330693748511    12.000000000000
         C            2.563269100355    -0.021901441065     0.185671748511    12.000000000000
         C            1.518466100355    -0.961830441065     0.051818748511    12.000000000000
         C            0.172780100355    -0.554726441065     0.045634748511    12.000000000000
         S            4.214187100355    -0.656191441065     0.209673748511    31.972071174400
         C            4.757098100355    -0.483403441065    -1.508752251489    12.000000000000
         O           -2.984707899645    -2.231790441065    -0.283402251489    15.994914619570
         O           -1.855693899645     2.465911558935     0.292791748511    15.994914619570
         H            3.014108100355     2.104758558935     0.461920748511     1.007825032230
         H            0.639433100355     2.816808558935     0.418849748511     1.007825032230
         H           -0.625367899645    -2.486559441065    -0.224291251489     1.007825032230
         H            1.758727100355    -2.021833441065    -0.041575251489     1.007825032230
         H            4.156388100355    -1.140725441065    -2.145028251489     1.007825032230
         H            4.633141100354     0.555989558935    -1.828300251489     1.007825032230
         H            5.811492100355    -0.766587441065    -1.579531251489     1.007825032230

  Nuclear repulsion = 1177.487589800012984

  ==> Basis Set <==

  Basis Set: 6-31+G*
    Blend: 6-31+G*
    Number of shells: 144
    Number of basis function: 322
    Number of Cartesian functions: 322
    Spherical Harmonics?: false
    Max angular momentum: 2

  ==> DFJKGrad: Density-Fitted SCF Gradients <==

    Gradient:                    1
    J tasked:                  Yes
    K tasked:                  Yes
    wK tasked:                 Yes
    Omega:               2.000E-01
    OpenMP threads:              8
    Integrals threads:           8
    Memory [MiB]:            11444
    Schwarz Cutoff:          0E+00
    Fitting Condition:       1E-10

   => Auxiliary Basis Set <=

  Basis Set: (6-31+G* AUX)
    Blend: HEAVY-AUG-CC-PVDZ-JKFIT
    Number of shells: 523
    Number of basis function: 1840
    Number of Cartesian functions: 1840
    Spherical Harmonics?: false
    Max angular momentum: 3

  ==> DFT Potential <==

   => Composite Functional: WB97X-D <= 

    wB97X-D Hyb-GGA Exchange-Correlation Functional

    J.-D. Chai and M. Head-Gordon, Phys. Chem. Chem. Phys. 10, 6615 (2008)

    Deriv               =              1
    GGA                 =           TRUE
    Meta                =          FALSE

    Exchange Hybrid     =           TRUE
    MP2 Hybrid          =          FALSE

   => Exchange-Correlation Functionals <=

    1.0000   wB97D range-separated functional

   => Exact (HF) Exchange <=

    0.7780            HF,LR [omega = 0.2000]
    0.2220               HF 

   => Molecular Quadrature <=

    Radial Scheme          =       TREUTLER
    Pruning Scheme         =           FLAT
    Nuclear Scheme         =       TREUTLER

    BS radius alpha        =              1
    Pruning alpha          =              1
    Radial Points          =             75
    Spherical Points       =            302
    Total Points           =         520864
    Total Blocks           =           3837
    Max Points             =            256
    Max Functions          =            278


  -Total Gradient:
     Atom            X                  Y                   Z
    ------   -----------------  -----------------  -----------------
       1       -0.007750341047    -0.011832343951    -0.002160287644
       2        0.006957860163     0.013106679476     0.001595407912
       3        0.014039801925    -0.002644232062     0.001536791208
       4       -0.010955794928     0.004659919658    -0.015624123655
       5       -0.010164304797     0.000506248137     0.015022334522
       6       -0.002386405248    -0.024694790867    -0.003089083892
       7       -0.007441026657     0.009522321478     0.001821987053
       8       -0.002080128102     0.011224983520     0.000182927216
       9        0.005024293831     0.004513072255     0.001415627030
      10        0.025019604424    -0.002830308762     0.005753818558
      11        0.003042648513    -0.006507234052    -0.000430121001
      12        0.004863186108    -0.007826460450    -0.000825773033
      13       -0.013194265363     0.001344985450    -0.013714265283
      14        0.010213349276    -0.004412521995     0.006413920367
      15       -0.006731214302    -0.022757386526    -0.003123750415
      16        0.000982002897     0.031598109771     0.003406464281
      17       -0.000281675605     0.004577090089     0.001054792703
      18       -0.000710547081     0.003760656035    -0.000150237478
      19       -0.004209968043     0.001408419727    -0.000113693290
      20       -0.000126152876    -0.003226339372     0.000211695562
      21       -0.002604523640    -0.001173095286     0.002002107249
      22       -0.002313361523     0.001533684091     0.002027107984
      23        0.001710432131     0.000006957309    -0.003337638245


*** tstop() called on cpu-spot-dy-c5n2xlarge-1 at Tue Jun 22 00:56:02 2021
Module time:
	user time   =     149.05 seconds =       2.48 minutes
	system time =       3.68 seconds =       0.06 minutes
	total time  =         24 seconds =       0.40 minutes
Total time:
	user time   =     690.24 seconds =      11.50 minutes
	system time =      13.32 seconds =       0.22 minutes
	total time  =         96 seconds =       1.60 minutes

			-----------------------------------------
			 OPTKING 2.0: for geometry optimizations 
			  - R.A. King,  Bethel University        
			-----------------------------------------
	At level 1: Red. Int., RFO, no backsteps, dynamic trust

	Internal coordinates to be generated automatically.
	Detected frag 1 with atoms:  1 2 3 4 5 6 7 8 9 10 11 12 13 14 15 16 17 18 19 20
	 21 22 23
	---Fragment 1 Bond Connectivity---
	 1 : 2 12 19
	 2 : 1 3 15
	 3 : 2 4 5 6
	 4 : 3
	 5 : 3
	 6 : 3 7 16
	 7 : 6 8 12
	 8 : 7 9 18
	 9 : 8 10 17
	 10 : 9 11 13
	 11 : 10 12 20
	 12 : 1 7 11
	 13 : 10 14
	 14 : 13 21 22 23
	 15 : 2
	 16 : 6
	 17 : 9
	 18 : 8
	 19 : 1
	 20 : 11
	 21 : 14
	 22 : 14
	 23 : 14

	Assuming in current code that numbering for constraints corresponds to unified fragment.
	Frozen dihedral atom list: 
	    11    10    13    14
	     9    10    13    14
	    21    14    13    10
	---Fragment 1 Geometry and Gradient---
	 N          -1.6249696365       -2.8538595590       -0.2040247564
	 C          -4.1818371143       -2.4485775558       -0.2490418121
	 C          -5.0558921392        0.3543039178        0.1006047642
	 F          -6.5498302454        0.9696233107       -1.9397249745
	 F          -6.5267510203        0.4498654782        2.2446313344
	 C          -2.9437773741        2.4189487626        0.3484480148
	 C          -0.2807431927        1.5577117501        0.3488391881
	 C           1.6998560826        3.3308455530        0.6020511505
	 C           4.2292053687        2.5534519093        0.6249206161
	 C           4.8438765855       -0.0413877254        0.3508687539
	 C           2.8694850605       -1.8175961127        0.0979232429
	 C           0.3265070696       -1.0482810482        0.0862371765
	 S           7.9636594611       -1.2400221095        0.3962259604
	 C           8.9896125616       -0.9135001117       -2.8511285465
	 O          -5.6402804948       -4.2174727030       -0.5355526387
	 O          -3.5067532430        4.6598974960        0.5532962165
	 H           5.6958388222        3.9774172366        0.8729037064
	 H           1.2083534352        5.3229967242        0.7915113124
	 H          -1.1817740580       -4.6989163383       -0.4238490376
	 H           3.3235125491       -3.8207114749       -0.0785658389
	 H           7.8544351808       -2.1556586680       -4.0535159267
	 H           8.7553677803        1.0506679950       -3.4549867504
	 H          10.9821284499       -1.4486403148       -2.9848814719
	            -0.0077503410       -0.0118323440       -0.0021602876
	             0.0069578602        0.0131066795        0.0015954079
	             0.0140398019       -0.0026442321        0.0015367912
	            -0.0109557949        0.0046599197       -0.0156241237
	            -0.0101643048        0.0005062481        0.0150223345
	            -0.0023864052       -0.0246947909       -0.0030890839
	            -0.0074410267        0.0095223215        0.0018219871
	            -0.0020801281        0.0112249835        0.0001829272
	             0.0050242938        0.0045130723        0.0014156270
	             0.0250196044       -0.0028303088        0.0057538186
	             0.0030426485       -0.0065072341       -0.0004301210
	             0.0048631861       -0.0078264605       -0.0008257730
	            -0.0131942654        0.0013449854       -0.0137142653
	             0.0102133493       -0.0044125220        0.0064139204
	            -0.0067312143       -0.0227573865       -0.0031237504
	             0.0009820029        0.0315981098        0.0034064643
	            -0.0002816756        0.0045770901        0.0010547927
	            -0.0007105471        0.0037606560       -0.0001502375
	            -0.0042099680        0.0014084197       -0.0001136933
	            -0.0001261529       -0.0032263394        0.0002116956
	            -0.0026045236       -0.0011730953        0.0020021072
	            -0.0023133615        0.0015336841        0.0020271080
	             0.0017104321        0.0000069573       -0.0033376382

	Previous optimization step data not found.  Starting new optimization.

	---Fragment 1 Intrafragment Coordinates---
	 - Coordinate -           - BOHR/RAD -       - ANG/DEG -
	 R(1,2)           =         2.589180	       1.370135
	 R(1,12)          =         2.674440	       1.415252
	 R(1,19)          =         1.910230	       1.010850
	 R(2,3)           =         2.956750	       1.564645
	 R(2,15)          =         2.310441	       1.222632
	 R(3,4)           =         2.602578	       1.377225
	 R(3,5)           =         2.601809	       1.376818
	 R(3,6)           =         2.963986	       1.568474
	 R(6,7)           =         2.798836	       1.481080
	 R(6,16)          =         2.319646	       1.227504
	 R(7,8)           =         2.670373	       1.413101
	 R(7,12)          =         2.688663	       1.422779
	 R(8,9)           =         2.646218	       1.400318
	 R(8,18)          =         2.060616	       1.090431
	 R(9,10)          =         2.680694	       1.418562
	 R(9,17)          =         2.059171	       1.089667
	 R(10,11)         =         2.667793	       1.411735
	 R(10,13)         =         3.342428	       1.768737
	 R(11,12)         =         2.656825	       1.405931
	 R(11,20)         =         2.061495	       1.090896
	 R(13,14)         =         3.421185	       1.810413
	 R(14,21)         =         2.068169	       1.094428
	 R(14,22)         =         2.068205	       1.094447
	 R(14,23)         =         2.067458	       1.094052
	 B(1,2,3)         =         2.024449	     115.992382
	 B(1,2,15)        =         2.100965	     120.376408
	 B(1,12,7)        =         2.094584	     120.010850
	 B(1,12,11)       =         2.098322	     120.224991
	 B(2,1,12)        =         2.235443	     128.081456
	 B(2,1,19)        =         1.958760	     112.228668
	 B(2,3,4)         =         1.876648	     107.524000
	 B(2,3,5)         =         1.874841	     107.420457
	 B(2,3,6)         =         2.048300	     117.358953
	 B(3,2,15)        =         2.157752	     123.630064
	 B(3,6,7)         =         2.052944	     117.625042
	 B(3,6,16)        =         2.102942	     120.489709
	 B(4,3,5)         =         1.888975	     108.230287
	 B(4,3,6)         =         1.885893	     108.053705
	 B(5,3,6)         =         1.884258	     107.960051
	 B(6,7,8)         =         2.096010	     120.092515
	 B(6,7,12)        =         2.109629	     120.872850
	 B(7,6,16)        =         2.127257	     121.882830
	 B(7,8,9)         =         2.111441	     120.976685
	 B(7,8,18)        =         2.064339	     118.277896
	 B(7,12,11)       =         2.090251	     119.762540
	 B(8,7,12)        =         2.077538	     119.034166
	 B(8,9,10)        =         2.097460	     120.175609
	 B(8,9,17)        =         2.069943	     118.599016
	 B(9,8,18)        =         2.107386	     120.744327
	 B(9,10,11)       =         2.076552	     118.977663
	 B(9,10,13)       =         2.164894	     124.039282
	 B(10,9,17)       =         2.115744	     121.223201
	 B(10,11,12)      =         2.112969	     121.064234
	 B(10,11,20)      =         2.085253	     119.476200
	 B(10,13,14)      =         1.805752	     103.461956
	 B(11,10,13)      =         2.041271	     116.956237
	 B(12,1,19)       =         2.088961	     119.688622
	 B(12,11,20)      =         2.084940	     119.458269
	 B(13,14,21)      =         1.907011	     109.263658
	 B(13,14,22)      =         1.911142	     109.500347
	 B(13,14,23)      =         1.902565	     109.008918
	 B(21,14,22)      =         1.916101	     109.784497
	 B(21,14,23)      =         1.913369	     109.627963
	 B(22,14,23)      =         1.913553	     109.638512
	 D(1,2,3,4)       =         2.173004	     124.503976
	 D(1,2,3,5)       =        -2.080544	    -119.206369
	 D(1,2,3,6)       =         0.044423	       2.545250
	 D(1,12,7,6)      =         0.010438	       0.598050
	 D(1,12,7,8)      =        -3.126809	    -179.152950
	 D(1,12,11,10)    =         3.126485	     179.134395
	 D(1,12,11,20)    =        -0.022378	      -1.282157
	 D(2,1,12,7)      =        -0.012948	      -0.741885
	 D(2,1,12,11)     =         3.136740	     179.721979
	 D(2,3,6,7)       =        -0.046547	      -2.666964
	 D(2,3,6,16)      =         3.104734	     177.888149
	 D(3,2,1,12)      =        -0.015922	      -0.912246
	 D(3,2,1,19)      =         3.132895	     179.501649
	 D(3,6,7,8)       =        -3.126304	    -179.124011
	 D(3,6,7,12)      =         0.019681	       1.127613
	 D(4,3,2,15)      =        -0.975377	     -55.885011
	 D(4,3,6,7)       =        -2.170349	    -124.351810
	 D(4,3,6,16)      =         0.980933	      56.203303
	 D(5,3,2,15)      =         1.054260	      60.404644
	 D(5,3,6,7)       =         2.073539	     118.805030
	 D(5,3,6,16)      =        -1.058365	     -60.639857
	 D(6,3,2,15)      =        -3.103959	    -177.843737
	 D(6,7,8,9)       =         3.133600	     179.542072
	 D(6,7,8,18)      =        -0.001404	      -0.080430
	 D(6,7,12,11)     =        -3.139213	    -179.863659
	 D(7,8,9,10)      =         0.017993	       1.030897
	 D(7,8,9,17)      =        -3.114354	    -178.439320
	 D(7,12,1,19)     =         3.120947	     178.817086
	 D(7,12,11,10)    =        -0.007032	      -0.402895
	 D(7,12,11,20)    =         3.127291	     179.180553
	 D(8,7,6,16)      =         0.005457	       0.312645
	 D(8,7,12,11)     =         0.006725	       0.385342
	 D(8,9,10,11)     =        -0.017798	      -1.019758
	 D(8,9,10,13)     =        -3.125464	    -179.075899
	 D(9,8,7,12)      =        -0.012304	      -0.704940
	 D(9,10,11,12)    =         0.012451	       0.713374
	 D(9,10,11,20)    =        -3.121870	    -178.870000
	*D(9,10,13,14)    =        -1.500135	     -85.951398
	 D(10,9,8,18)     =        -3.130351	    -179.355914
	*D(10,13,14,21)   =        -1.142103	     -65.437698
	 D(10,13,14,22)   =         0.957077	      54.836476
	 D(10,13,14,23)   =         3.050429	     174.776729
	 D(11,10,9,17)    =         3.114301	     178.436310
	*D(11,10,13,14)   =         1.674755	      95.956369
	 D(11,12,1,19)    =        -0.012550	      -0.719050
	 D(12,1,2,15)     =         3.132223	     179.463174
	 D(12,7,6,16)     =        -3.131744	    -179.435731
	 D(12,7,8,18)     =         3.135878	     179.672558
	 D(12,11,10,13)   =         3.122504	     178.906295
	 D(13,10,9,17)    =         0.006635	       0.380170
	 D(13,10,11,20)   =        -0.011817	      -0.677079
	 D(15,2,1,19)     =        -0.002146	      -0.122932
	 D(17,9,8,18)     =         0.020488	       1.173869

	Current energy   :     -1188.1122682880

	Generating empirical Hessian (Schlegel '84) for each fragment.
	Taking RFO optimization step.
	Going to follow RFO solution 1.
	Using RFO vector 1.
	Norm of target step-size    0.20696
	Projected energy change by RFO approximation:        -0.0128287170

	Back-transformation to cartesian coordinates...
	Could not converge backtransformation.
	Using first guess instead.

	Back-transformation to cartesian coordinates to adjust frozen coordinates...
	Successfully converged to displaced geometry.

	--- Internal Coordinate Step in ANG or DEG, aJ/ANG or AJ/DEG ---
	 ---------------------------------------------------------------------------
	   Coordinate                Previous        Force       Change         New 
	   ----------                --------       ------       ------       ------
	    1 R(1,2)          =      1.370135    -0.009265     0.092638     1.462773
	    2 R(1,12)         =      1.415252    -0.124136     0.025613     1.440866
	    3 R(1,19)         =      1.010850     0.019300     0.157982     1.168833
	    4 R(2,3)          =      1.564645    -0.096953     0.217631     1.782276
	    5 R(2,15)         =      1.222632    -0.181885     0.035105     1.257738
	    6 R(3,4)          =      1.377225    -0.161967     0.108278     1.485503
	    7 R(3,5)          =      1.376818    -0.149713     0.190212     1.567030
	    8 R(3,6)          =      1.568474    -0.091012     0.033235     1.601709
	    9 R(6,7)          =      1.481080    -0.054605     0.122003     1.603083
	   10 R(6,16)         =      1.227504    -0.252166     0.170826     1.398330
	   11 R(7,8)          =      1.413101    -0.111716     0.025139     1.438239
	   12 R(7,12)         =      1.422779    -0.137346     0.191792     1.614571
	   13 R(8,9)          =      1.400318    -0.119227     0.104413     1.504732
	   14 R(8,18)         =      1.090431    -0.031344     0.159755     1.250186
	   15 R(9,10)         =      1.418562    -0.139995     0.191426     1.609988
	   16 R(9,17)         =      1.089667    -0.025272     0.028070     1.117736
	   17 R(10,11)        =      1.411735    -0.115863     0.025609     1.437344
	   18 R(10,13)        =      1.768737     0.041943     0.170936     1.939673
	   19 R(11,12)        =      1.405931    -0.101352     0.108458     1.514389
	   20 R(11,20)        =      1.090896    -0.025347     0.160434     1.251330
	   21 R(13,14)        =      1.810413     0.041912     0.318632     2.129045
	   22 R(14,21)        =      1.094428    -0.008150     0.045543     1.139971
	   23 R(14,22)        =      1.094447    -0.009336     0.180218     1.274665
	   24 R(14,23)        =      1.094052    -0.015016     0.089998     1.184050
	   25 B(1,2,3)        =    115.992382    -0.000084     5.225919   121.218302
	   26 B(1,2,15)       =    120.376408     0.000855    -0.861171   119.515238
	   27 B(1,12,7)       =    120.010850     0.000270    -2.182664   117.828186
	   28 B(1,12,11)      =    120.224991    -0.000323    -3.118219   117.106772
	   29 B(2,1,12)       =    128.081456    -0.000159    -3.178996   124.902460
	   30 B(2,1,19)       =    112.228668     0.000357     6.901833   119.130501
	   31 B(2,3,4)        =    107.524000    -0.000015     4.880449   112.404448
	   32 B(2,3,5)        =    107.420457    -0.000008     0.483421   107.903878
	   33 B(2,3,6)        =    117.358953     0.000058    -2.222472   115.136481
	   34 B(3,2,15)       =    123.630064    -0.000771    -4.363628   119.266436
	   35 B(3,6,7)        =    117.625042    -0.000107    -2.663332   114.961710
	   36 B(3,6,16)       =    120.489709    -0.000710    -4.494048   115.995661
	   37 B(4,3,5)        =    108.230287    -0.000010     1.385469   109.615756
	   38 B(4,3,6)        =    108.053705    -0.000001    -6.141950   101.911756
	   39 B(5,3,6)        =    107.960051    -0.000029     1.762156   109.722207
	   40 B(6,7,8)        =    120.092515    -0.000057    -2.187991   117.904524
	   41 B(6,7,12)       =    120.872850     0.000022     5.033364   125.906215
	   42 B(7,6,16)       =    121.882830     0.000817     7.158493   129.041323
	   43 B(7,8,9)        =    120.976685    -0.000004    -2.150954   118.825731
	   44 B(7,8,18)       =    118.277896    -0.000010    -3.002681   115.275215
	   45 B(7,12,11)      =    119.762540     0.000053     5.302188   125.064728
	   46 B(8,7,12)       =    119.034166     0.000035    -2.844956   116.189209
	   47 B(8,9,10)       =    120.175609    -0.000097     4.801633   124.977242
	   48 B(8,9,17)       =    118.599016     0.000325    -0.824007   117.775009
	   49 B(9,8,18)       =    120.744327     0.000013     5.153470   125.897797
	   50 B(9,10,11)      =    118.977663     0.000240    -2.235829   116.741834
	   51 B(9,10,13)      =    124.039282    -0.000863     2.588120   126.627402
	   52 B(10,9,17)      =    121.223201    -0.000228    -3.979835   117.243366
	   53 B(10,11,12)     =    121.064234    -0.000226    -2.863789   118.200445
	   54 B(10,11,20)     =    119.476200     0.000047    -2.835352   116.640849
	   55 B(10,13,14)     =    103.461956    -0.001356    -2.296741   101.165214
	   56 B(11,10,13)     =    116.956237     0.000623    -0.350994   116.605243
	   57 B(12,1,19)      =    119.688622    -0.000198    -3.723814   115.964808
	   58 B(12,11,20)     =    119.458269     0.000180     5.697780   125.156049
	   59 B(13,14,21)     =    109.263658     0.000438     2.912883   112.176540
	   60 B(13,14,22)     =    109.500347     0.000351     3.553300   113.053647
	   61 B(13,14,23)     =    109.008918    -0.000544    -0.787688   108.221231
	   62 B(21,14,22)     =    109.784497    -0.000179    -5.112624   104.671873
	   63 B(21,14,23)     =    109.627963     0.000012    -2.435505   107.192458
	   64 B(22,14,23)     =    109.638512    -0.000077     1.746485   111.384997
	   65 D(1,2,3,4)      =    124.503976     0.000003    -5.988751   118.515225
	   66 D(1,2,3,5)      =   -119.206369    -0.000002    -1.295171  -120.501541
	   67 D(1,2,3,6)      =      2.545250    -0.000003    -0.137038     2.408212
	   68 D(1,12,7,6)     =      0.598050    -0.000003    -0.311403     0.286647
	   69 D(1,12,7,8)     =   -179.152950    -0.000006    -0.645673  -179.798623
	   70 D(1,12,11,10)   =    179.134395     0.000007     0.781022   179.915417
	   71 D(1,12,11,20)   =     -1.282157     0.000004     0.582930    -0.699227
	   72 D(2,1,12,7)     =     -0.741885     0.000002     0.389148    -0.352737
	   73 D(2,1,12,11)    =    179.721979     0.000000     0.118696   179.840675
	   74 D(2,3,6,7)      =     -2.666964     0.000002     0.369785    -2.297179
	   75 D(2,3,6,16)     =    177.888149    -0.000000     0.192351   178.080500
	   76 D(3,2,1,12)     =     -0.912246     0.000001    -0.086032    -0.998278
	   77 D(3,2,1,19)     =    179.501649     0.000000     0.066466   179.568115
	   78 D(3,6,7,8)      =   -179.124011     0.000004     0.413274  -178.710736
	   79 D(3,6,7,12)     =      1.127613     0.000001     0.075068     1.202681
	   80 D(4,3,2,15)     =    -55.885011     0.000005    -5.656691   -61.541702
	   81 D(4,3,6,7)      =   -124.351810    -0.000002     0.099378  -124.252432
	   82 D(4,3,6,16)     =     56.203303    -0.000005    -0.078056    56.125247
	   83 D(5,3,2,15)     =     60.404644    -0.000000    -0.963111    59.441532
	   84 D(5,3,6,7)      =    118.805030     0.000004     0.832186   119.637215
	   85 D(5,3,6,16)     =    -60.639857     0.000001     0.654751   -59.985106
	   86 D(6,3,2,15)     =   -177.843737    -0.000001     0.195022  -177.648715
	   87 D(6,7,8,9)      =    179.542072     0.000002     0.160415   179.702487
	   88 D(6,7,8,18)     =     -0.080430     0.000001     0.166710     0.086280
	   89 D(6,7,12,11)    =   -179.863659    -0.000001    -0.060040  -179.923698
	   90 D(7,8,9,10)     =      1.030897    -0.000006    -0.673763     0.357134
	   91 D(7,8,9,17)     =   -178.439320    -0.000005    -0.418768  -178.858088
	   92 D(7,12,1,19)    =    178.817086     0.000003     0.279880   179.096966
	   93 D(7,12,11,10)   =     -0.402895     0.000005     0.527284     0.124389
	   94 D(7,12,11,20)   =    179.180553     0.000002     0.329192   179.509745
	   95 D(8,7,6,16)     =      0.312645     0.000005     0.539548     0.852194
	   96 D(8,7,12,11)    =      0.385342    -0.000004    -0.394310    -0.008968
	   97 D(8,9,10,11)    =     -1.019758     0.000006     0.783708    -0.236050
	   98 D(8,9,10,13)    =   -179.075899     0.000004     0.749902  -178.325997
	   99 D(9,8,7,12)     =     -0.704940     0.000005     0.485581    -0.219359
	  100 D(9,10,11,12)   =      0.713374    -0.000005    -0.720117    -0.006742
	  101 D(9,10,11,20)   =   -178.870000    -0.000002    -0.574532  -179.444532
	  102 *D(9,10,13,14)  =    -85.951398    -0.000000    -0.000000   -85.951398
	  103 D(10,9,8,18)    =   -179.355914    -0.000006    -0.715377  -180.071291
	  104 *D(10,13,14,21) =    -65.437698    -0.000000    -0.000000   -65.437698
	  105 D(10,13,14,22)  =     54.836476     0.000061    -2.192578    52.643898
	  106 D(10,13,14,23)  =    174.776729     0.000012     1.736374   176.513103
	  107 D(11,10,9,17)   =    178.436310     0.000005     0.546645   178.982955
	  108 *D(11,10,13,14) =     95.956369    -0.000000     0.000000    95.956369
	  109 D(11,12,1,19)   =     -0.719050     0.000001     0.009429    -0.709621
	  110 D(12,1,2,15)    =    179.463174     0.000000    -0.404385   179.058788
	  111 D(12,7,6,16)    =   -179.435731     0.000001     0.201342  -179.234390
	  112 D(12,7,8,18)    =    179.672558     0.000004     0.491876   180.164433
	  113 D(12,11,10,13)  =    178.906295    -0.000010    -0.627389   178.278906
	  114 D(13,10,9,17)   =      0.380170     0.000003     0.512838     0.893008
	  115 D(13,10,11,20)  =     -0.677079    -0.000008    -0.481804    -1.158883
	  116 D(15,2,1,19)    =     -0.122932    -0.000000    -0.251887    -0.374818
	  117 D(17,9,8,18)    =      1.173869    -0.000004    -0.460382     0.713487
	 ---------------------------------------------------------------------------
	Successfully symmetrized geometry.

  ==> Convergence Check <==

  Measures of convergence in internal coordinates in au.
  Criteria marked as inactive (o), active & met (*), and active & unmet ( ).
  --------------------------------------------------------------------------------------------- ~
   Step     Total Energy     Delta E     MAX Force     RMS Force      MAX Disp      RMS Disp    ~
  --------------------------------------------------------------------------------------------- ~
    Convergence Criteria             o    2.50e-03 *    1.70e-03 *    1.00e-02 *    6.70e-03 *  ~
  --------------------------------------------------------------------------------------------- ~
      1   -1188.11226829   -1.19e+03 o    3.06e-02      6.71e-03      6.02e-01      1.30e-01    ~
  ---------------------------------------------------------------------------------------------

	Writing optimization data to binary file.
	Structure for next step:
	Cartesian Geometry (in Angstrom)
	    N    -0.3491122618  -1.9909671419  -0.1755988089
	    C    -1.7408736707  -2.1366310600   0.2504128755
	    C    -2.5917944925  -0.8169576126   1.0935636061
	    F    -3.7726022577  -0.3293487431   0.3355074097
	    F    -3.0500881172  -1.3553438830   2.4920233096
	    C    -1.7427390536   0.5277972707   1.2838547009
	    C    -0.2371862066   0.4603365103   0.7373785962
	    C     0.5913034743   1.6244453437   0.9016587600
	    C     2.0101291135   1.5814846099   0.4023541664
	    C     2.6950437708   0.3184667524  -0.3241022769
	    C     1.8767041818  -0.8505130307  -0.4966270966
	    C     0.4506718111  -0.8071032883   0.0112323736
	    S     4.5285392695   0.1946298296  -0.9448182947
	    C     4.3667216795   1.0593538572  -2.8836064358
	    O    -2.3501876731  -3.2124316668   0.0195595738
	    O    -2.4071325524   1.5892253342   1.9061709736
	    H     2.6442660368   2.4889172784   0.5565329955
	    H     0.0427679012   2.5943138814   1.4686050057
	    H     0.1758706690  -2.8826856308  -0.7191065877
	    H     2.4141904392  -1.8347441815  -1.0518072569
	    H     3.7205458121   0.4316488837  -3.5821597767
	    H     3.8111875988   2.2065478486  -2.8737087233
	    H     5.4501547710   1.1083936942  -3.3587298537
			--------------------------
			 OPTKING Finished Execution 
			--------------------------

    Structure for next step:
    Molecular point group: c1
    Full point group: C1

    Geometry (in Angstrom), charge = 0, multiplicity = 1:

    N           -0.434384681861    -1.727800986981    -0.397526036570
    C           -1.826146096254    -1.873464905599     0.028485649471
    C           -2.677066921432    -0.553791453074     0.871636383449
    F           -3.857874691263    -0.066182581561     0.113580183999
    F           -3.135360547858    -1.092177725493     2.270096092383
    C           -1.828011479127     0.790963435519     1.061927478985
    C           -0.322458626283     0.723502674908     0.515451372149
    C            0.506031057938     1.887611512899     0.679731536598
    C            1.924856702660     1.844650778872     0.180426941029
    C            2.609771362673     0.581632916391    -0.546029505142
    C            1.791431770476    -0.587346871281    -0.718554325562
    C            0.365399394187    -0.543937128664    -0.210694853378
    S            4.443266868580     0.457795993115    -1.166745525400
    C            4.281449277928     1.322520024167    -3.105533674112
    O           -2.435460101040    -2.949265516601    -0.202367653082
    O           -2.492404980552     1.852391503243     1.684243754149
    H            2.558993628454     2.752083450987     0.334605770695
    H           -0.042504517335     2.857480054355     1.246677784508
    H            0.090598250953    -2.619519479373    -0.941033817460
    H            2.328918029975    -1.571578025936    -1.273734488024
    H            3.635273407984     0.694815048221    -3.804087017795
    H            3.725915195045     2.469714020109    -3.095635961602
    H            5.364882373742     1.371559861338    -3.580657093906

gradient() will perform analytic gradient computation.

*** tstart() called on cpu-spot-dy-c5n2xlarge-1
*** at Tue Jun 22 00:56:02 2021

   => Loading Basis Set <=

    Name: 6-31+G*
    Role: ORBITAL
    Keyword: BASIS
    atoms 1             entry N          line   138 file /fsx/users/francis/anaconda3/envs/poltype-dev/share/psi4/basis/6-31pgs.gbs 
    atoms 2-3, 6-12, 14 entry C          line   119 file /fsx/users/francis/anaconda3/envs/poltype-dev/share/psi4/basis/6-31pgs.gbs 
    atoms 4-5           entry F          line   176 file /fsx/users/francis/anaconda3/envs/poltype-dev/share/psi4/basis/6-31pgs.gbs 
    atoms 13            entry S          line   344 file /fsx/users/francis/anaconda3/envs/poltype-dev/share/psi4/basis/6-31pgs.gbs 
    atoms 15-16         entry O          line   157 file /fsx/users/francis/anaconda3/envs/poltype-dev/share/psi4/basis/6-31pgs.gbs 
    atoms 17-23         entry H          line    46 file /fsx/users/francis/anaconda3/envs/poltype-dev/share/psi4/basis/6-31pgs.gbs 


         ---------------------------------------------------------
                                   SCF
               by Justin Turney, Rob Parrish, Andy Simmonett
                          and Daniel G. A. Smith
                              RKS Reference
                        8 Threads,  15258 MiB Core
         ---------------------------------------------------------

  ==> Geometry <==

    Molecular point group: c1
    Full point group: C1

    Geometry (in Angstrom), charge = 0, multiplicity = 1:

       Center              X                  Y                   Z               Mass       
    ------------   -----------------  -----------------  -----------------  -----------------
         N           -0.434384681861    -1.727800986981    -0.397526036570    14.003074004430
         C           -1.826146096254    -1.873464905599     0.028485649471    12.000000000000
         C           -2.677066921432    -0.553791453074     0.871636383449    12.000000000000
         F           -3.857874691263    -0.066182581561     0.113580183999    18.998403162730
         F           -3.135360547858    -1.092177725493     2.270096092383    18.998403162730
         C           -1.828011479127     0.790963435519     1.061927478985    12.000000000000
         C           -0.322458626283     0.723502674908     0.515451372149    12.000000000000
         C            0.506031057938     1.887611512899     0.679731536598    12.000000000000
         C            1.924856702660     1.844650778872     0.180426941029    12.000000000000
         C            2.609771362673     0.581632916391    -0.546029505142    12.000000000000
         C            1.791431770476    -0.587346871281    -0.718554325562    12.000000000000
         C            0.365399394187    -0.543937128664    -0.210694853378    12.000000000000
         S            4.443266868580     0.457795993115    -1.166745525400    31.972071174400
         C            4.281449277928     1.322520024167    -3.105533674112    12.000000000000
         O           -2.435460101040    -2.949265516601    -0.202367653082    15.994914619570
         O           -2.492404980552     1.852391503243     1.684243754149    15.994914619570
         H            2.558993628454     2.752083450987     0.334605770695     1.007825032230
         H           -0.042504517335     2.857480054355     1.246677784508     1.007825032230
         H            0.090598250953    -2.619519479373    -0.941033817460     1.007825032230
         H            2.328918029975    -1.571578025936    -1.273734488024     1.007825032230
         H            3.635273407984     0.694815048221    -3.804087017795     1.007825032230
         H            3.725915195045     2.469714020109    -3.095635961602     1.007825032230
         H            5.364882373742     1.371559861338    -3.580657093906     1.007825032230

  Running in c1 symmetry.

  Rotational constants: A =      0.03055  B =      0.00719  C =      0.00630 [cm^-1]
  Rotational constants: A =    915.95322  B =    215.50550  C =    188.80332 [MHz]
  Nuclear repulsion = 1089.357911547165713

  Charge       = 0
  Multiplicity = 1
  Electrons    = 124
  Nalpha       = 62
  Nbeta        = 62

  ==> Algorithm <==

  SCF Algorithm Type is DF.
  DIIS enabled.
  MOM disabled.
  Fractional occupation disabled.
  Guess Type is READ.
  Energy threshold   = 1.00e-08
  Density threshold  = 1.00e-08
  Integral threshold = 0.00e+00

  ==> Primary Basis <==

  Basis Set: 6-31+G*
    Blend: 6-31+G*
    Number of shells: 144
    Number of basis function: 322
    Number of Cartesian functions: 322
    Spherical Harmonics?: false
    Max angular momentum: 2

  ==> DFT Potential <==

   => Composite Functional: WB97X-D <= 

    wB97X-D Hyb-GGA Exchange-Correlation Functional

    J.-D. Chai and M. Head-Gordon, Phys. Chem. Chem. Phys. 10, 6615 (2008)

    Deriv               =              1
    GGA                 =           TRUE
    Meta                =          FALSE

    Exchange Hybrid     =           TRUE
    MP2 Hybrid          =          FALSE

   => Exchange-Correlation Functionals <=

    1.0000   wB97D range-separated functional

   => Exact (HF) Exchange <=

    0.7780            HF,LR [omega = 0.2000]
    0.2220               HF 

   => Molecular Quadrature <=

    Radial Scheme          =       TREUTLER
    Pruning Scheme         =           FLAT
    Nuclear Scheme         =       TREUTLER

    BS radius alpha        =              1
    Pruning alpha          =              1
    Radial Points          =             75
    Spherical Points       =            302
    Total Points           =         520866
    Total Blocks           =           3864
    Max Points             =            256
    Max Functions          =            276

   => WB97X-D: Empirical Dispersion <=

    Chai and Head-Gordon Dispersion Correction
    Chai, J.-D.; Head-Gordon, M. (2010), J. Chem. Phys., 132: 6615-6620

        s6 =       1.000000

   => Loading Basis Set <=

    Name: (6-31+G* AUX)
    Role: JKFIT
    Keyword: DF_BASIS_SCF
    atoms 1             entry N          line   252 file /fsx/users/francis/anaconda3/envs/poltype-dev/share/psi4/basis/heavy-aug-cc-pvdz-jkfit.gbs 
    atoms 2-3, 6-12, 14 entry C          line   194 file /fsx/users/francis/anaconda3/envs/poltype-dev/share/psi4/basis/heavy-aug-cc-pvdz-jkfit.gbs 
    atoms 4-5           entry F          line   368 file /fsx/users/francis/anaconda3/envs/poltype-dev/share/psi4/basis/heavy-aug-cc-pvdz-jkfit.gbs 
    atoms 13            entry S          line   730 file /fsx/users/francis/anaconda3/envs/poltype-dev/share/psi4/basis/heavy-aug-cc-pvdz-jkfit.gbs 
    atoms 15-16         entry O          line   310 file /fsx/users/francis/anaconda3/envs/poltype-dev/share/psi4/basis/heavy-aug-cc-pvdz-jkfit.gbs 
    atoms 17-23         entry H          line   116 file /fsx/users/francis/anaconda3/envs/poltype-dev/share/psi4/basis/heavy-aug-cc-pvdz-jkfit.gbs 

   => Loading Basis Set <=

    Name: 6-31+G*
    Role: ORBITAL
    Keyword: BASIS
    atoms 1             entry N          line   138 file /fsx/users/francis/anaconda3/envs/poltype-dev/share/psi4/basis/6-31pgs.gbs 
    atoms 2-3, 6-12, 14 entry C          line   119 file /fsx/users/francis/anaconda3/envs/poltype-dev/share/psi4/basis/6-31pgs.gbs 
    atoms 4-5           entry F          line   176 file /fsx/users/francis/anaconda3/envs/poltype-dev/share/psi4/basis/6-31pgs.gbs 
    atoms 13            entry S          line   344 file /fsx/users/francis/anaconda3/envs/poltype-dev/share/psi4/basis/6-31pgs.gbs 
    atoms 15-16         entry O          line   157 file /fsx/users/francis/anaconda3/envs/poltype-dev/share/psi4/basis/6-31pgs.gbs 
    atoms 17-23         entry H          line    46 file /fsx/users/francis/anaconda3/envs/poltype-dev/share/psi4/basis/6-31pgs.gbs 

  Reading orbitals from file 180, no projection.

  ==> Pre-Iterations <==

   -------------------------------------------------------
    Irrep   Nso     Nmo     Nalpha   Nbeta   Ndocc  Nsocc
   -------------------------------------------------------
     A        322     322       0       0       0       0
   -------------------------------------------------------
    Total     322     322      62      62      62       0
   -------------------------------------------------------

  ==> Integral Setup <==

  ==> DiskDFJK: Density-Fitted J/K Matrices <==

    J tasked:                  Yes
    K tasked:                  Yes
    wK tasked:                 Yes
    Omega:               2.000E-01
    OpenMP threads:              8
    Integrals threads:           8
    Memory [MiB]:             8589
    Algorithm:                Core
    Integral Cache:           NONE
    Schwarz Cutoff:          1E-12
    Fitting Condition:       1E-10

   => Auxiliary Basis Set <=

  Basis Set: (6-31+G* AUX)
    Blend: HEAVY-AUG-CC-PVDZ-JKFIT
    Number of shells: 523
    Number of basis function: 1840
    Number of Cartesian functions: 1840
    Spherical Harmonics?: false
    Max angular momentum: 3

  Cached 100.0% of DFT collocation blocks in 2.788 [GiB].

  Minimum eigenvalue in the overlap matrix is 1.3867009494E-06.
  Using Symmetric Orthogonalization.

  SCF Guess: Orbitals guess was supplied from a previous computation.

  ==> Iterations <==

                           Total Energy        Delta E     RMS |[F,P]|

   @DF-RKS iter   0: -1187.84447700328042   -1.18784e+03   2.56607e-02 
   @DF-RKS iter   1: -1171.82982397337355    1.60147e+01   1.25210e-02 DIIS
   @DF-RKS iter   2:  -848.83694380840575    3.22993e+02   5.54595e-02 DIIS
   @DF-RKS iter   3: -1068.92917015216790   -2.20092e+02   3.66073e-02 DIIS
   @DF-RKS iter   4: -1163.25812692081422   -9.43290e+01   1.81233e-02 DIIS
   @DF-RKS iter   5: -1162.21351230042228    1.04461e+00   1.61705e-02 DIIS
   @DF-RKS iter   6: -1181.45278648294948   -1.92393e+01   7.29332e-03 DIIS
   @DF-RKS iter   7: -1179.97404145873111    1.47875e+00   8.29287e-03 DIIS
   @DF-RKS iter   8: -1187.38512043900209   -7.41108e+00   2.78020e-03 DIIS
   @DF-RKS iter   9: -1187.72142415766712   -3.36304e-01   1.29368e-03 DIIS
   @DF-RKS iter  10: -1187.77309025249406   -5.16661e-02   7.16233e-04 DIIS
   @DF-RKS iter  11: -1187.79299734721462   -1.99071e-02   2.86278e-04 DIIS
   @DF-RKS iter  12: -1187.79671390328190   -3.71656e-03   9.21349e-05 DIIS
   @DF-RKS iter  13: -1187.79722613396711   -5.12231e-04   5.58998e-05 DIIS
   @DF-RKS iter  14: -1187.79739410971888   -1.67976e-04   3.10143e-05 DIIS
   @DF-RKS iter  15: -1187.79745912975704   -6.50200e-05   1.24072e-05 DIIS
   @DF-RKS iter  16: -1187.79746881257915   -9.68282e-06   6.54700e-06 DIIS
   @DF-RKS iter  17: -1187.79747229659915   -3.48402e-06   2.61207e-06 DIIS
   @DF-RKS iter  18: -1187.79747282383983   -5.27241e-07   9.92206e-07 DIIS
   @DF-RKS iter  19: -1187.79747290086857   -7.70287e-08   5.01391e-07 DIIS
   @DF-RKS iter  20: -1187.79747292056163   -1.96931e-08   1.70518e-07 DIIS
   @DF-RKS iter  21: -1187.79747292383763   -3.27600e-09   7.37512e-08 DIIS
   @DF-RKS iter  22: -1187.79747292456977   -7.32143e-10   4.40668e-08 DIIS
   @DF-RKS iter  23: -1187.79747292474644   -1.76669e-10   2.33134e-08 DIIS
   @DF-RKS iter  24: -1187.79747292481761   -7.11680e-11   1.56014e-08 DIIS
   @DF-RKS iter  25: -1187.79747292484512   -2.75122e-11   7.92716e-09 DIIS
  Energy and wave function converged.


  ==> Post-Iterations <==

    Orbital Energies [Eh]
    ---------------------

    Doubly Occupied:                                                      

       1A    -89.099237     2A    -24.880109     3A    -24.864228  
       4A    -19.325107     5A    -19.322672     6A    -14.577438  
       7A    -10.555459     8A    -10.504162     9A    -10.481085  
      10A    -10.457444    11A    -10.424661    12A    -10.407651  
      13A    -10.399747    14A    -10.397977    15A    -10.394255  
      16A    -10.383812    17A     -8.110327    18A     -6.061406  
      19A     -6.058123    20A     -6.049632    21A     -1.328534  
      22A     -1.283819    23A     -1.180795    24A     -1.102429  
      25A     -1.071306    26A     -0.956271    27A     -0.910134  
      28A     -0.871025    29A     -0.857103    30A     -0.829816  
      31A     -0.775958    32A     -0.753162    33A     -0.731877  
      34A     -0.720017    35A     -0.659683    36A     -0.644679  
      37A     -0.627576    38A     -0.624512    39A     -0.599314  
      40A     -0.578151    41A     -0.563471    42A     -0.550325  
      43A     -0.548401    44A     -0.538612    45A     -0.527177  
      46A     -0.524636    47A     -0.520460    48A     -0.508015  
      49A     -0.504922    50A     -0.501214    51A     -0.492627  
      52A     -0.489617    53A     -0.474035    54A     -0.463276  
      55A     -0.455814    56A     -0.440417    57A     -0.416559  
      58A     -0.406679    59A     -0.378448    60A     -0.373868  
      61A     -0.351041    62A     -0.320089  

    Virtual:                                                              

      63A     -0.084833    64A     -0.011059    65A     -0.008788  
      66A      0.017896    67A      0.021723    68A      0.030322  
      69A      0.031781    70A      0.044923    71A      0.057420  
      72A      0.065217    73A      0.079568    74A      0.086054  
      75A      0.087304    76A      0.089886    77A      0.100822  
      78A      0.105809    79A      0.107792    80A      0.111618  
      81A      0.112987    82A      0.119196    83A      0.122235  
      84A      0.128203    85A      0.132203    86A      0.134942  
      87A      0.140905    88A      0.142083    89A      0.149901  
      90A      0.153460    91A      0.159367    92A      0.164368  
      93A      0.167967    94A      0.175314    95A      0.175751  
      96A      0.178490    97A      0.179292    98A      0.187666  
      99A      0.191332   100A      0.193168   101A      0.202432  
     102A      0.206065   103A      0.210691   104A      0.215493  
     105A      0.217259   106A      0.226868   107A      0.233039  
     108A      0.234718   109A      0.240030   110A      0.247035  
     111A      0.249158   112A      0.253019   113A      0.259282  
     114A      0.260365   115A      0.269836   116A      0.279911  
     117A      0.281608   118A      0.285486   119A      0.287733  
     120A      0.294868   121A      0.302017   122A      0.306845  
     123A      0.308999   124A      0.319581   125A      0.322502  
     126A      0.330909   127A      0.333679   128A      0.347787  
     129A      0.348661   130A      0.362526   131A      0.363558  
     132A      0.372597   133A      0.373307   134A      0.380488  
     135A      0.388330   136A      0.397497   137A      0.400778  
     138A      0.408028   139A      0.411234   140A      0.422506  
     141A      0.424447   142A      0.436000   143A      0.439613  
     144A      0.446460   145A      0.455192   146A      0.475087  
     147A      0.482645   148A      0.496976   149A      0.503866  
     150A      0.516589   151A      0.526304   152A      0.528916  
     153A      0.547509   154A      0.567808   155A      0.570160  
     156A      0.592654   157A      0.620587   158A      0.654584  
     159A      0.668679   160A      0.674999   161A      0.710155  
     162A      0.716698   163A      0.720394   164A      0.728462  
     165A      0.745905   166A      0.767108   167A      0.773356  
     168A      0.780031   169A      0.787545   170A      0.804954  
     171A      0.816462   172A      0.830109   173A      0.842802  
     174A      0.846927   175A      0.850252   176A      0.864434  
     177A      0.874062   178A      0.898369   179A      0.901034  
     180A      0.917872   181A      0.924898   182A      0.931192  
     183A      0.936389   184A      0.954890   185A      0.955900  
     186A      0.973630   187A      0.986946   188A      1.008340  
     189A      1.020108   190A      1.039795   191A      1.044597  
     192A      1.049811   193A      1.069942   194A      1.081208  
     195A      1.098331   196A      1.121900   197A      1.136993  
     198A      1.142909   199A      1.174801   200A      1.183935  
     201A      1.191093   202A      1.244064   203A      1.257781  
     204A      1.267897   205A      1.283584   206A      1.289819  
     207A      1.300250   208A      1.313383   209A      1.317938  
     210A      1.321640   211A      1.346052   212A      1.364795  
     213A      1.385345   214A      1.402158   215A      1.408745  
     216A      1.415317   217A      1.434460   218A      1.446945  
     219A      1.459818   220A      1.467695   221A      1.477471  
     222A      1.492003   223A      1.514109   224A      1.528894  
     225A      1.533958   226A      1.554374   227A      1.572219  
     228A      1.582437   229A      1.592885   230A      1.624074  
     231A      1.638767   232A      1.666821   233A      1.673151  
     234A      1.693380   235A      1.709031   236A      1.725012  
     237A      1.729949   238A      1.733646   239A      1.737531  
     240A      1.742489   241A      1.769544   242A      1.779089  
     243A      1.806403   244A      1.815751   245A      1.822500  
     246A      1.842423   247A      1.850990   248A      1.872247  
     249A      1.883616   250A      1.890501   251A      1.906278  
     252A      1.912282   253A      1.940694   254A      1.951403  
     255A      1.956742   256A      1.967200   257A      1.970695  
     258A      1.977019   259A      1.993348   260A      1.999127  
     261A      2.003847   262A      2.038808   263A      2.043623  
     264A      2.066739   265A      2.071618   266A      2.085122  
     267A      2.107421   268A      2.115434   269A      2.134234  
     270A      2.137624   271A      2.162095   272A      2.188268  
     273A      2.223963   274A      2.234015   275A      2.244076  
     276A      2.267272   277A      2.275560   278A      2.299457  
     279A      2.301884   280A      2.348526   281A      2.355610  
     282A      2.358306   283A      2.405612   284A      2.451987  
     285A      2.479795   286A      2.487352   287A      2.518350  
     288A      2.523900   289A      2.553411   290A      2.594224  
     291A      2.616649   292A      2.637316   293A      2.666638  
     294A      2.714195   295A      2.743919   296A      2.777363  
     297A      2.783885   298A      2.854200   299A      2.957254  
     300A      3.014486   301A      3.027329   302A      3.097036  
     303A      3.136513   304A      3.144820   305A      3.219997  
     306A      3.244792   307A      3.998524   308A      4.095323  
     309A      4.194251   310A      4.220241   311A      4.270952  
     312A      4.319728   313A      4.360859   314A      4.384776  
     315A      4.404475   316A      4.456883   317A      4.482540  
     318A      4.583475   319A      4.670883   320A      4.795084  
     321A      5.609937   322A      6.636679  

    Final Occupation by Irrep:
              A 
    DOCC [    62 ]

  @DF-RKS Final Energy: -1187.79747292484512

   => Energetics <=

    Nuclear Repulsion Energy =           1089.3579115471657133
    One-Electron Energy =               -3793.4486765920432845
    Two-Electron Energy =                1604.7999656665397197
    DFT Exchange-Correlation Energy =     -88.4935953413413756
    Empirical Dispersion Energy =          -0.0130782051658916
    VV10 Nonlocal Energy =                  0.0000000000000000
    Total Energy =                      -1187.7974729248451240

Computation Completed


Properties will be evaluated at   0.000000,   0.000000,   0.000000 [a0]

Properties computed using the SCF density matrix

  Nuclear Dipole Moment: [e a0]
     X:    23.2496      Y:     6.6868      Z:   -12.6901

  Electronic Dipole Moment: [e a0]
     X:   -20.3565      Y:    -6.5429      Z:    10.8061

  Dipole Moment: [e a0]
     X:     2.8931      Y:     0.1439      Z:    -1.8840     Total:     3.4555

  Dipole Moment: [D]
     X:     7.3536      Y:     0.3658      Z:    -4.7886     Total:     8.7829


*** tstop() called on cpu-spot-dy-c5n2xlarge-1 at Tue Jun 22 00:57:47 2021
Module time:
	user time   =     798.70 seconds =      13.31 minutes
	system time =      11.25 seconds =       0.19 minutes
	total time  =        105 seconds =       1.75 minutes
Total time:
	user time   =    1490.83 seconds =      24.85 minutes
	system time =      24.70 seconds =       0.41 minutes
	total time  =        201 seconds =       3.35 minutes

*** tstart() called on cpu-spot-dy-c5n2xlarge-1
*** at Tue Jun 22 00:57:47 2021


         ------------------------------------------------------------
                                   SCF GRAD                          
                          Rob Parrish, Justin Turney,                
                       Andy Simmonett, and Alex Sokolov              
         ------------------------------------------------------------

  ==> Geometry <==

    Molecular point group: c1
    Full point group: C1

    Geometry (in Angstrom), charge = 0, multiplicity = 1:

       Center              X                  Y                   Z               Mass       
    ------------   -----------------  -----------------  -----------------  -----------------
         N           -0.434384681861    -1.727800986981    -0.397526036570    14.003074004430
         C           -1.826146096254    -1.873464905599     0.028485649471    12.000000000000
         C           -2.677066921432    -0.553791453074     0.871636383449    12.000000000000
         F           -3.857874691263    -0.066182581561     0.113580183999    18.998403162730
         F           -3.135360547858    -1.092177725493     2.270096092383    18.998403162730
         C           -1.828011479127     0.790963435519     1.061927478985    12.000000000000
         C           -0.322458626283     0.723502674908     0.515451372149    12.000000000000
         C            0.506031057938     1.887611512899     0.679731536598    12.000000000000
         C            1.924856702660     1.844650778872     0.180426941029    12.000000000000
         C            2.609771362673     0.581632916391    -0.546029505142    12.000000000000
         C            1.791431770476    -0.587346871281    -0.718554325562    12.000000000000
         C            0.365399394187    -0.543937128664    -0.210694853378    12.000000000000
         S            4.443266868580     0.457795993115    -1.166745525400    31.972071174400
         C            4.281449277928     1.322520024167    -3.105533674112    12.000000000000
         O           -2.435460101040    -2.949265516601    -0.202367653082    15.994914619570
         O           -2.492404980552     1.852391503243     1.684243754149    15.994914619570
         H            2.558993628454     2.752083450987     0.334605770695     1.007825032230
         H           -0.042504517335     2.857480054355     1.246677784508     1.007825032230
         H            0.090598250953    -2.619519479373    -0.941033817460     1.007825032230
         H            2.328918029975    -1.571578025936    -1.273734488024     1.007825032230
         H            3.635273407984     0.694815048221    -3.804087017795     1.007825032230
         H            3.725915195045     2.469714020109    -3.095635961602     1.007825032230
         H            5.364882373742     1.371559861338    -3.580657093906     1.007825032230

  Nuclear repulsion = 1089.357911547165713

  ==> Basis Set <==

  Basis Set: 6-31+G*
    Blend: 6-31+G*
    Number of shells: 144
    Number of basis function: 322
    Number of Cartesian functions: 322
    Spherical Harmonics?: false
    Max angular momentum: 2

  ==> DFJKGrad: Density-Fitted SCF Gradients <==

    Gradient:                    1
    J tasked:                  Yes
    K tasked:                  Yes
    wK tasked:                 Yes
    Omega:               2.000E-01
    OpenMP threads:              8
    Integrals threads:           8
    Memory [MiB]:            11444
    Schwarz Cutoff:          0E+00
    Fitting Condition:       1E-10

   => Auxiliary Basis Set <=

  Basis Set: (6-31+G* AUX)
    Blend: HEAVY-AUG-CC-PVDZ-JKFIT
    Number of shells: 523
    Number of basis function: 1840
    Number of Cartesian functions: 1840
    Spherical Harmonics?: false
    Max angular momentum: 3

  ==> DFT Potential <==

   => Composite Functional: WB97X-D <= 

    wB97X-D Hyb-GGA Exchange-Correlation Functional

    J.-D. Chai and M. Head-Gordon, Phys. Chem. Chem. Phys. 10, 6615 (2008)

    Deriv               =              1
    GGA                 =           TRUE
    Meta                =          FALSE

    Exchange Hybrid     =           TRUE
    MP2 Hybrid          =          FALSE

   => Exchange-Correlation Functionals <=

    1.0000   wB97D range-separated functional

   => Exact (HF) Exchange <=

    0.7780            HF,LR [omega = 0.2000]
    0.2220               HF 

   => Molecular Quadrature <=

    Radial Scheme          =       TREUTLER
    Pruning Scheme         =           FLAT
    Nuclear Scheme         =       TREUTLER

    BS radius alpha        =              1
    Pruning alpha          =              1
    Radial Points          =             75
    Spherical Points       =            302
    Total Points           =         520866
    Total Blocks           =           3864
    Max Points             =            256
    Max Functions          =            276


  -Total Gradient:
     Atom            X                  Y                   Z
    ------   -----------------  -----------------  -----------------
       1       -0.004011149386     0.012964382460     0.006934564289
       2        0.024212524150     0.054088675780     0.015096610482
       3        0.021465428194    -0.006291612077    -0.012061489661
       4       -0.061470980232     0.044415991758    -0.041349649495
       5       -0.027315550351    -0.030801819355     0.091657617797
       6        0.040898536627    -0.075474012018    -0.054127919683
       7       -0.012250428932     0.024884146207     0.014927015166
       8       -0.026121067262    -0.002480742428     0.007617352192
       9        0.008394951734     0.034220820777     0.009972484901
      10        0.043119989713    -0.032784250804    -0.023751451910
      11        0.011857722684    -0.001466095358    -0.005735022305
      12        0.011189407969    -0.020370623893    -0.012032687874
[...]
	 B(3,6,16)        =         2.064677	     118.297279
	 B(4,3,5)         =         1.891032	     108.348162
	 B(4,3,6)         =         1.883217	     107.900403
	 B(5,3,6)         =         1.880982	     107.772319
	 B(6,7,8)         =         2.092252	     119.877190
	 B(6,7,12)        =         2.105468	     120.634417
	 B(7,6,16)        =         2.172121	     124.453357
	 B(7,8,9)         =         2.108906	     120.831428
	 B(7,8,18)        =         2.060893	     118.080465
	 B(7,12,11)       =         2.090106	     119.754264
	 B(8,7,12)        =         2.085462	     119.488145
	 B(8,9,10)        =         2.085971	     119.517346
	 B(8,9,17)        =         2.106379	     120.686631
	 B(9,8,18)        =         2.113354	     121.086288
	 B(9,10,11)       =         2.098537	     120.237338
	 B(9,10,13)       =         2.100377	     120.342765
	 B(10,9,17)       =         2.090805	     119.794286
	 B(10,11,12)      =         2.097284	     120.165538
	 B(10,11,20)      =         2.086976	     119.574896
	 B(10,13,14)      =         1.734523	      99.380849
	 B(11,10,13)      =         2.083788	     119.392252
	 B(12,1,19)       =         2.065938	     118.369510
	 B(12,11,20)      =         2.098914	     120.258893
	 B(13,14,21)      =         1.937925	     111.034931
	 B(13,14,22)      =         1.937805	     111.028075
	 B(13,14,23)      =         1.859584	     106.546298
	 B(21,14,22)      =         1.923201	     110.191272
	 B(21,14,23)      =         1.902094	     108.981959
	 B(22,14,23)      =         1.901552	     108.950917
	 D(1,2,3,4)       =         2.138540	     122.529316
	 D(1,2,3,5)       =        -2.115297	    -121.197586
	 D(1,2,3,6)       =         0.010134	       0.580620
	 D(1,12,7,6)      =        -0.004224	      -0.242033
	 D(1,12,7,8)      =         3.134201	     179.576465
	 D(1,12,11,10)    =        -3.139038	    -179.853618
	 D(1,12,11,20)    =        -0.002675	      -0.153257
	 D(2,1,12,7)      =        -0.005354	      -0.306740
	 D(2,1,12,11)     =         3.136924	     179.732517
	 D(2,3,6,7)       =        -0.018432	      -1.056051
	 D(2,3,6,16)      =         3.123734	     178.976786
	 D(3,2,1,12)      =         0.001814	       0.103934
	 D(3,2,1,19)      =         3.136673	     179.718146
	 D(3,6,7,8)       =        -3.122764	    -178.921193
	 D(3,6,7,12)      =         0.015649	       0.896602
	 D(4,3,2,15)      =        -1.003248	     -57.481865
	 D(4,3,6,7)       =        -2.141652	    -122.707643
	 D(4,3,6,16)      =         1.000513	      57.325194
	 D(5,3,2,15)      =         1.026101	      58.791233
	 D(5,3,6,7)       =         2.102948	     120.490046
	 D(5,3,6,16)      =        -1.038072	     -59.477117
	 D(6,3,2,15)      =        -3.131654	    -179.430561
	 D(6,7,8,9)       =         3.139554	     179.883214
	 D(6,7,8,18)      =         0.006434	       0.368640
	 D(6,7,12,11)     =         3.136679	     179.718449
	 D(7,8,9,10)      =         0.010645	       0.609923
	 D(7,8,9,17)      =        -3.122561	    -178.909560
	 D(7,12,1,19)     =        -3.139984	    -179.907804
	 D(7,12,11,10)    =         0.003230	       0.185074
	 D(7,12,11,20)    =         3.139593	     179.885435
	 D(8,7,6,16)      =         0.018217	       1.043743
	 D(8,7,12,11)     =        -0.008082	      -0.463052
	 D(8,9,10,11)     =        -0.015520	      -0.889251
	 D(8,9,10,13)     =        -3.123533	    -178.965285
	 D(9,8,7,12)      =         0.001105	       0.063322
	 D(9,10,11,12)    =         0.008609	       0.493262
	 D(9,10,11,20)    =        -3.127790	    -179.209150
	*D(9,10,13,14)    =        -1.500135	     -85.951398
	 D(10,9,8,18)     =        -3.139676	    -179.890182
	*D(10,13,14,21)   =        -1.142103	     -65.437698
	 D(10,13,14,22)   =         1.003912	      57.519896
	 D(10,13,14,23)   =         3.072138	     176.020553
	 D(11,10,9,17)    =         3.117761	     178.634575
	*D(11,10,13,14)   =         1.674755	      95.956369
	 D(11,12,1,19)    =         0.002294	       0.131452
	 D(12,1,2,15)     =        -3.139579	    -179.884655
	 D(12,7,6,16)     =        -3.126556	    -179.138462
	 D(12,7,8,18)     =        -3.132015	    -179.451253
	 D(12,11,10,13)   =         3.116941	     178.587546
	 D(13,10,9,17)    =         0.009748	       0.558541
	 D(13,10,11,20)   =        -0.019458	      -1.114866
	 D(15,2,1,19)     =        -0.004720	      -0.270442
	 D(17,9,8,18)     =         0.010303	       0.590335

	Current energy   :     -1188.1192426061

	Energy change for the previous step:
		Projected    :        -0.0001900399
		Actual       :        -0.0000645427

	Performing BFGS update.
	Previous computed or guess Hessian on step 1.
	Steps to be used in Hessian update: 2 1
	Taking RFO optimization step.
	Going to follow RFO solution 1.
	Using RFO vector 1.
	Norm of target step-size    0.00892
	Projected energy change by RFO approximation:        -0.0000008522

	Back-transformation to cartesian coordinates...
	Successfully converged to displaced geometry.

	Back-transformation to cartesian coordinates to adjust frozen coordinates...
	Successfully converged to displaced geometry.

	--- Internal Coordinate Step in ANG or DEG, aJ/ANG or AJ/DEG ---
	 ---------------------------------------------------------------------------
	   Coordinate                Previous        Force       Change         New 
	   ----------                --------       ------       ------       ------
	    1 R(1,2)          =      1.369441    -0.000193    -0.000016     1.369425
	    2 R(1,12)         =      1.397933    -0.000770    -0.000106     1.397827
	    3 R(1,19)         =      1.013144    -0.000393    -0.000045     1.013100
	    4 R(2,3)          =      1.547651    -0.000670    -0.000107     1.547544
	    5 R(2,15)         =      1.208976    -0.002098    -0.000131     1.208845
	    6 R(3,4)          =      1.354605    -0.001561    -0.000186     1.354420
	    7 R(3,5)          =      1.355237    -0.000815    -0.000093     1.355144
	    8 R(3,6)          =      1.553995    -0.000722    -0.000152     1.553843
	    9 R(6,7)          =      1.471932    -0.000807    -0.000131     1.471801
	   10 R(6,16)         =      1.209759    -0.006685    -0.000457     1.209301
	   11 R(7,8)          =      1.400091     0.000055     0.000014     1.400105
	   12 R(7,12)         =      1.402644    -0.001228    -0.000153     1.402491
	   13 R(8,9)          =      1.384139    -0.000832    -0.000105     1.384034
	   14 R(8,18)         =      1.085685    -0.000435    -0.000062     1.085622
	   15 R(9,10)         =      1.402170    -0.000742    -0.000084     1.402086
	   16 R(9,17)         =      1.085048    -0.000116    -0.000018     1.085030
	   17 R(10,11)        =      1.391985    -0.001016    -0.000135     1.391850
	   18 R(10,13)        =      1.787807     0.000164     0.000057     1.787863
	   19 R(11,12)        =      1.397006     0.000111     0.000020     1.397026
	   20 R(11,20)        =      1.086701    -0.000485    -0.000070     1.086631
	   21 R(13,14)        =      1.822566    -0.002078    -0.000519     1.822048
	   22 R(14,21)        =      1.092387     0.000121     0.000028     1.092415
	   23 R(14,22)        =      1.092493    -0.000282    -0.000029     1.092464
	   24 R(14,23)        =      1.093016     0.000089     0.000027     1.093043
	   25 B(1,2,3)        =    115.949097    -0.000006    -0.017317   115.931780
	   26 B(1,2,15)       =    122.957794     0.000005     0.012812   122.970606
	   27 B(1,12,7)       =    121.165114     0.000001     0.002326   121.167440
	   28 B(1,12,11)      =    119.080610     0.000001     0.004707   119.085317
	   29 B(2,1,12)       =    127.119271     0.000002     0.005213   127.124484
	   30 B(2,1,19)       =    114.510148    -0.000002    -0.008119   114.502029
	   31 B(2,3,4)        =    107.320054    -0.000003    -0.011388   107.308666
	   32 B(2,3,5)        =    107.319598    -0.000006    -0.021281   107.298318
	   33 B(2,3,6)        =    117.874525     0.000004     0.016744   117.891270
	   34 B(3,2,15)       =    121.093108     0.000001     0.004426   121.097534
	   35 B(3,6,7)        =    117.249355    -0.000002    -0.006887   117.242468
	   36 B(3,6,16)       =    118.297279     0.000002     0.006395   118.303674
	   37 B(4,3,5)        =    108.348162     0.000001     0.000373   108.348535
	   38 B(4,3,6)        =    107.900403     0.000000     0.002829   107.903232
	   39 B(5,3,6)        =    107.772319     0.000003     0.011715   107.784034
	   40 B(6,7,8)        =    119.877190    -0.000000     0.000059   119.877249
	   41 B(6,7,12)       =    120.634417     0.000001     0.001450   120.635867
	   42 B(7,6,16)       =    124.453357     0.000000     0.000459   124.453816
	   43 B(7,8,9)        =    120.831428     0.000003     0.010136   120.841564
	   44 B(7,8,18)       =    118.080465    -0.000003    -0.010021   118.070444
	   45 B(7,12,11)      =    119.754264    -0.000003    -0.007030   119.747234
	   46 B(8,7,12)       =    119.488145    -0.000001    -0.001497   119.486648
	   47 B(8,9,10)       =    119.517346    -0.000004    -0.012648   119.504698
	   48 B(8,9,17)       =    120.686631     0.000004     0.017527   120.704158
	   49 B(9,8,18)       =    121.086288    -0.000001    -0.000234   121.086054
	   50 B(9,10,11)      =    120.237338     0.000003     0.007284   120.244623
	   51 B(9,10,13)      =    120.342765    -0.000004    -0.011322   120.331443
	   52 B(10,9,17)      =    119.794286    -0.000001    -0.004860   119.789426
	   53 B(10,11,12)     =    120.165538     0.000001     0.003729   120.169267
	   54 B(10,11,20)     =    119.574896     0.000001     0.004604   119.579500
	   55 B(10,13,14)     =     99.380849    -0.000002    -0.004422    99.376428
	   56 B(11,10,13)     =    119.392252     0.000001     0.004033   119.396285
	   57 B(12,1,19)      =    118.369510     0.000000     0.002723   118.372233
	   58 B(12,11,20)     =    120.258893    -0.000002    -0.008373   120.250521
	   59 B(13,14,21)     =    111.034931     0.000002     0.009755   111.044686
	   60 B(13,14,22)     =    111.028075     0.000002     0.010125   111.038199
	   61 B(13,14,23)     =    106.546298     0.000000     0.001251   106.547549
	   62 B(21,14,22)     =    110.191272    -0.000002    -0.011576   110.179696
	   63 B(21,14,23)     =    108.981959    -0.000000    -0.002683   108.979276
	   64 B(22,14,23)     =    108.950917    -0.000001    -0.006943   108.943974
	   65 D(1,2,3,4)      =    122.529316     0.000000    -0.138041   122.391275
	   66 D(1,2,3,5)      =   -121.197586    -0.000001    -0.153988  -121.351574
	   67 D(1,2,3,6)      =      0.580620    -0.000000    -0.144163     0.436457
	   68 D(1,12,7,6)     =     -0.242033    -0.000000    -0.012855    -0.254888
	   69 D(1,12,7,8)     =    179.576465     0.000000    -0.008104   179.568361
	   70 D(1,12,11,10)   =   -179.853618     0.000000     0.016449  -179.837169
	   71 D(1,12,11,20)   =     -0.153257     0.000000     0.007758    -0.145499
	   72 D(2,1,12,7)     =     -0.306740    -0.000000    -0.001478    -0.308217
	   73 D(2,1,12,11)    =    179.732517    -0.000000    -0.006914   179.725603
	   74 D(2,3,6,7)      =     -1.056051     0.000000     0.133556    -0.922495
	   75 D(2,3,6,16)     =    178.976786     0.000000     0.171942   179.148728
	   76 D(3,2,1,12)     =      0.103934     0.000000     0.082408     0.186341
	   77 D(3,2,1,19)     =    179.718146     0.000000     0.050679   179.768825
	   78 D(3,6,7,8)      =   -178.921193    -0.000000    -0.061227  -178.982420
	   79 D(3,6,7,12)     =      0.896602    -0.000000    -0.056460     0.840142
	   80 D(4,3,2,15)     =    -57.481865     0.000000    -0.026504   -57.508369
	   81 D(4,3,6,7)      =   -122.707643     0.000000     0.134603  -122.573040
	   82 D(4,3,6,16)     =     57.325194     0.000000     0.172989    57.498183
	   83 D(5,3,2,15)     =     58.791233    -0.000000    -0.042451    58.748782
	   84 D(5,3,6,7)      =    120.490046    -0.000000     0.126550   120.616596
	   85 D(5,3,6,16)     =    -59.477117    -0.000000     0.164936   -59.312181
	   86 D(6,3,2,15)     =   -179.430561     0.000000    -0.032626  -179.463187
	   87 D(6,7,8,9)      =    179.883214    -0.000000    -0.002272   179.880942
	   88 D(6,7,8,18)     =      0.368640     0.000000     0.013321     0.381961
	   89 D(6,7,12,11)    =    179.718449    -0.000000    -0.007378   179.711071
	   90 D(7,8,9,10)     =      0.609923     0.000000     0.008037     0.617960
	   91 D(7,8,9,17)     =   -178.909560     0.000000     0.005400  -178.904160
	   92 D(7,12,1,19)    =   -179.907804     0.000000     0.031372  -179.876433
	   93 D(7,12,11,10)   =      0.185074     0.000000     0.011088     0.196162
	   94 D(7,12,11,20)   =    179.885435     0.000000     0.002397   179.887832
	   95 D(8,7,6,16)     =      1.043743    -0.000000    -0.102211     0.941532
	   96 D(8,7,12,11)    =     -0.463052    -0.000000    -0.002627    -0.465679
	   97 D(8,9,10,11)    =     -0.889251    -0.000000     0.000481    -0.888769
	   98 D(8,9,10,13)    =   -178.965285     0.000000     0.000548  -178.964737
	   99 D(9,8,7,12)     =      0.063322    -0.000000    -0.006989     0.056333
	  100 D(9,10,11,12)   =      0.493262    -0.000000    -0.009959     0.483304
	  101 D(9,10,11,20)   =   -179.209150    -0.000000    -0.001287  -179.210437
	  102 *D(9,10,13,14)  =    -85.951398    -0.000000     0.000000   -85.951398
	  103 D(10,9,8,18)    =   -179.890182    -0.000000    -0.008075  -179.898257
	  104 *D(10,13,14,21) =    -65.437698    -0.000000     0.000000   -65.437698
	  105 D(10,13,14,22)  =     57.519896    -0.000000    -0.000795    57.519101
	  106 D(10,13,14,23)  =    176.020553    -0.000000    -0.002862   176.017691
	  107 D(11,10,9,17)   =    178.634575     0.000000     0.003203   178.637779
	  108 *D(11,10,13,14) =     95.956369     0.000000    -0.000000    95.956369
	  109 D(11,12,1,19)   =      0.131452     0.000000     0.025935     0.157387
	  110 D(12,1,2,15)    =   -179.884655    -0.000000    -0.031434  -179.916088
	  111 D(12,7,6,16)    =   -179.138462    -0.000000    -0.097445  -179.235907
	  112 D(12,7,8,18)    =   -179.451253     0.000000     0.008604  -179.442649
	  113 D(12,11,10,13)  =    178.587546    -0.000000    -0.010320   178.577226
	  114 D(13,10,9,17)   =      0.558541     0.000000     0.003270     0.561811
	  115 D(13,10,11,20)  =     -1.114866    -0.000000    -0.001649    -1.116515
	  116 D(15,2,1,19)    =     -0.270442    -0.000000    -0.063163    -0.333605
	  117 D(17,9,8,18)    =      0.590335    -0.000000    -0.010711     0.579624
	 ---------------------------------------------------------------------------
	Successfully symmetrized geometry.

  ==> Convergence Check <==

  Measures of convergence in internal coordinates in au.
  Criteria marked as inactive (o), active & met (*), and active & unmet ( ).
  ---------------------------------------------------------------------------------------------
   Step     Total Energy     Delta E     MAX Force     RMS Force      MAX Disp      RMS Disp   
  ---------------------------------------------------------------------------------------------
    Convergence Criteria             o    2.50e-03 *    1.70e-03 *    1.00e-02 *    6.70e-03 *
  ---------------------------------------------------------------------------------------------
      3   -1188.11924261   -6.45e-05 o    8.11e-04 *    9.16e-05 *    3.02e-03 *    8.25e-04 *  ~
  ---------------------------------------------------------------------------------------------


  **** Optimization is complete! (in 3 steps) ****

  ==> Optimization Summary <==

  Measures of convergence in internal coordinates in au.
  --------------------------------------------------------------------------------------------------------------- ~
   Step         Total Energy             Delta E       MAX Force       RMS Force        MAX Disp        RMS Disp  ~
  --------------------------------------------------------------------------------------------------------------- ~
      1   -1188.119212139459  -1188.119212139459      0.00111192      0.00029261      0.04148883      0.00923280  ~
      2   -1188.119178063372      0.000034076086      0.00169747      0.00026899      0.02461760      0.00581468  ~
      3   -1188.119242606061     -0.000064542689      0.00081147      0.00009159      0.00301923      0.00082496  ~
  --------------------------------------------------------------------------------------------------------------- ~

	Writing optimization data to binary file.
	Final energy is  -1188.1192426060609
	Final (previous) structure:
	Cartesian Geometry (in Angstrom)
	    N    -0.5065734630  -1.6409825928  -0.2998402647
	    C    -1.8091394516  -1.8011711481   0.0913488252
	    C    -2.4714312192  -0.5725098266   0.7599173781
	    F    -3.5710343487  -0.2614589039   0.0325416421
	    F    -2.8721317112  -0.9535660913   1.9972136199
	    C    -1.6196596709   0.7181248803   0.9136998974
	    C    -0.2299402743   0.6699353358   0.4310596974
	    C     0.5936081259   1.7944767996   0.5630803952
	    C     1.9041162888   1.7701673533   0.1183126633
	    C     2.4080209492   0.6081879160  -0.4833227579
	    C     1.6018477819  -0.5188605394  -0.6154974876
	    C     0.2819322391  -0.4953459421  -0.1584457609
	    S     4.1054396891   0.5430990730  -1.0408039451
	    C     3.9005709576   1.2652813763  -2.7015957710
	    O    -2.4214349267  -2.8315427594  -0.0669284463
	    O    -2.1356852354   1.6890783311   1.4181626695
	    H     2.5455729167   2.6371216574   0.2376959567
	    H     0.1767625390   2.6810938365   1.0309060737
	    H    -0.0933677878  -2.4596360058  -0.7305711512
	    H     2.0073983865  -1.4178678944  -1.0718232373
	    H     3.2934587476   0.6179178261  -3.3384972693
	    H     3.4560239201   2.2615597175  -2.6437338370
	    H     4.9023767751   1.3479769879  -3.1308162454
	Saving final (previous) structure.
			--------------------------
			 OPTKING Finished Execution 
			--------------------------

    Final optimized geometry and variables:
    Molecular point group: c1
    Full point group: C1

    Geometry (in Angstrom), charge = 0, multiplicity = 1:

    N           -0.506573465001    -1.640982599277    -0.299840265913
    C           -1.809139458737    -1.801171155212     0.091348825532
    C           -2.471431228869    -0.572509828881     0.759917381067
    F           -3.571034362761    -0.261458904957     0.032541642257
    F           -2.872131722516    -0.953566095072     1.997213627723
    C           -1.619659677275     0.718124883080     0.913699900985
    C           -0.229940275228     0.669935338453     0.431059699082
    C            0.593608128233     1.794476806660     0.563080397441
    C            1.904116296269     1.770167360292     0.118312663746
    C            2.408020958647     0.608187918419    -0.483322759829
    C            1.601847788223    -0.518860541453    -0.615497490004
    C            0.281932240212    -0.495345944080    -0.158445761514
    S            4.105439705235     0.543099075173    -1.040803949226
    C            3.900570972940     1.265281381307    -2.701595781587
    O           -2.421434936256    -2.831542770575    -0.066928446572
    O           -2.135685243761     1.689078337787     1.418162675096
    H            2.545572926676     2.637121667760     0.237695957640
    H            0.176762539721     2.681093847004     1.030906077729
    H           -0.093367788205    -2.459636015499    -0.730571154057
    H            2.007398394427    -1.417867900000    -1.071823241550
    H            3.293458760565     0.617917828536    -3.338497282456
    H            3.456023933654     2.261559726420    -2.643733847387
    H            4.902376794329     1.347976993148    -3.130816257707

	Removing binary optimization data file.
	Cleaning optimization helper files.

    Psi4 stopped on: Tuesday, 22 June 2021 01:12AM
    Psi4 wall time for execution: 0:17:36.11

*** Psi4 exiting successfully. Buy a developer a beer!
