
    -----------------------------------------------------------------------
          Psi4: An Open-Source Ab Initio Electronic Structure Package
                               Psi4 1.3.2 release

                         Git: Rev {HEAD} ecbda83 


    R. M. Parrish, L. A. Burns, D. G. A. Smith, A. C. Simmonett,
    A. E. DePrince III, E. G. Hohenstein, U. Bozkaya, A. Yu. Sokolov,
    R. Di Remigio, R. M. Richard, J. F. Gonthier, A. M. James,
    H. R. McAlexander, A. Kumar, M. Saitow, X. Wang, B. P. Pritchard,
    P. Verma, H. F. Schaefer III, K. Patkowski, R. A. King, E. F. Valeev,
    F. A. Evangelista, J. M. Turney, T. D. Crawford, and C. D. Sherrill,
    J. Chem. Theory Comput. 13(7) pp 3185--3197 (2017).
    (doi: 10.1021/acs.jctc.7b00174)


                         Additional Contributions by
    P. Kraus, H. Kruse, M. H. Lechner, M. C. Schieber, R. A. Shaw,
    A. Alenaizan, R. Galvelis, Z. L. Glick, S. Lehtola, and J. P. Misiewicz

    -----------------------------------------------------------------------


    Psi4 started on: Monday, 21 June 2021 11:25PM

    Process ID: 18228
    Host:       cpu-spot-dy-c5n2xlarge-1
    PSIDATADIR: /fsx/users/francis/anaconda3/envs/poltype-dev/share/psi4
    Memory:     500.0 MiB
    Threads:    1
    
  ==> Input File <==

--------------------------------------------------------------------------
molecule { 
0 1
 N   -0.555606   -1.328384    0.316301
 C   -1.843995   -1.209938    0.766643
 C   -2.457171    0.228512    0.717745
 F   -3.649329    0.149092    0.032774
 F   -2.728985    0.603858    2.013840
 C   -1.591446    1.358272    0.059613
 C   -0.215312    1.008787   -0.361758
 C    0.622025    1.992803   -0.932454
 C    1.932202    1.686327   -1.320336
 C    2.438369    0.369771   -1.164336
 C    1.595077   -0.618867   -0.607988
 C    0.279813   -0.316326   -0.213483
 S    4.098790   -0.085474   -1.593447
 C    4.805911   -0.802010   -0.083296
 O   -2.444338   -2.188728    1.186580
 O   -2.042992    2.491575   -0.075226
 H    2.553016    2.482899   -1.730021
 H    0.224807    3.000814   -1.055606
 H   -0.214577   -2.277881    0.379353
 H    1.963514   -1.638628   -0.493596
 H    4.877510   -0.023957    0.683325
 H    4.182814   -1.626032    0.274743
 H    5.807940   -1.178550   -0.310334
}
set optking { 
  frozen_dihedral = ("
    11 10 13 14
    9 10 13 14
    21 14 13 10
  ")
}
set {
  geom_maxiter 400
  g_convergence GAU_LOOSE
  dynamic_level 1
}
memory 16GB
set_num_threads(8)
psi4_io.set_default_path("/scratch/Psi4-ligand")
for _ in range(1):
  try:
    set opt_coordinates both
    optimize('wb97x-d/6-31+G*')
    break
  except OptimizationConvergenceError:
    break
  else:
    try:
      set opt_coordinates cartesian
      optimize('wb97x-d/6-31+G*')
      break
    except OptimizationConvergenceError:
      pass
clean()
--------------------------------------------------------------------------

  Memory set to  14.901 GiB by Python driver.
  Threads set to 8 by Python driver.
gradient() will perform analytic gradient computation.

*** tstart() called on cpu-spot-dy-c5n2xlarge-1
*** at Mon Jun 21 23:25:02 2021

   => Loading Basis Set <=

    Name: 6-31+G*
    Role: ORBITAL
    Keyword: BASIS
    atoms 1             entry N          line   138 file /fsx/users/francis/anaconda3/envs/poltype-dev/share/psi4/basis/6-31pgs.gbs 
    atoms 2-3, 6-12, 14 entry C          line   119 file /fsx/users/francis/anaconda3/envs/poltype-dev/share/psi4/basis/6-31pgs.gbs 
    atoms 4-5           entry F          line   176 file /fsx/users/francis/anaconda3/envs/poltype-dev/share/psi4/basis/6-31pgs.gbs 
    atoms 13            entry S          line   344 file /fsx/users/francis/anaconda3/envs/poltype-dev/share/psi4/basis/6-31pgs.gbs 
    atoms 15-16         entry O          line   157 file /fsx/users/francis/anaconda3/envs/poltype-dev/share/psi4/basis/6-31pgs.gbs 
    atoms 17-23         entry H          line    46 file /fsx/users/francis/anaconda3/envs/poltype-dev/share/psi4/basis/6-31pgs.gbs 


         ---------------------------------------------------------
                                   SCF
               by Justin Turney, Rob Parrish, Andy Simmonett
                          and Daniel G. A. Smith
                              RKS Reference
                        8 Threads,  15258 MiB Core
         ---------------------------------------------------------

  ==> Geometry <==

    Molecular point group: c1
    Full point group: C1

    Geometry (in Angstrom), charge = 0, multiplicity = 1:

       Center              X                  Y                   Z               Mass       
    ------------   -----------------  -----------------  -----------------  -----------------
         N           -0.624106844335    -1.496732144632     0.438941876344    14.003074004430
         C           -1.912495844335    -1.378286144632     0.889283876344    12.000000000000
         C           -2.525671844335     0.060163855368     0.840385876344    12.000000000000
         F           -3.717829844335    -0.019256144632     0.155414876344    18.998403162730
         F           -2.797485844335     0.435509855368     2.136480876344    18.998403162730
         C           -1.659946844335     1.189923855368     0.182253876344    12.000000000000
         C           -0.283812844335     0.840438855368    -0.239117123656    12.000000000000
         C            0.553524155665     1.824454855368    -0.809813123656    12.000000000000
         C            1.863701155665     1.517978855368    -1.197695123656    12.000000000000
         C            2.369868155665     0.201422855368    -1.041695123656    12.000000000000
         C            1.526576155665    -0.787215144632    -0.485347123656    12.000000000000
         C            0.211312155665    -0.484674144632    -0.090842123656    12.000000000000
         S            4.030289155665    -0.253822144632    -1.470806123656    31.972071174400
         C            4.737410155665    -0.970358144632     0.039344876344    12.000000000000
         O           -2.512838844335    -2.357076144632     1.309220876344    15.994914619570
         O           -2.111492844335     2.323226855368     0.047414876344    15.994914619570
         H            2.484515155665     2.314550855368    -1.607380123656     1.007825032230
         H            0.156306155665     2.832465855368    -0.932965123656     1.007825032230
         H           -0.283077844335    -2.446229144632     0.501993876344     1.007825032230
         H            1.895013155665    -1.806976144632    -0.370955123656     1.007825032230
         H            4.809009155665    -0.192305144632     0.805965876344     1.007825032230
         H            4.114313155665    -1.794380144632     0.397383876344     1.007825032230
         H            5.739439155665    -1.346898144632    -0.187693123656     1.007825032230

  Running in c1 symmetry.

  Rotational constants: A =      0.03487  B =      0.00853  C =      0.00729 [cm^-1]
  Rotational constants: A =   1045.26620  B =    255.60815  C =    218.58771 [MHz]
  Nuclear repulsion = 1178.708490389981989

  Charge       = 0
  Multiplicity = 1
  Electrons    = 124
  Nalpha       = 62
  Nbeta        = 62

  ==> Algorithm <==

  SCF Algorithm Type is DF.
  DIIS enabled.
  MOM disabled.
  Fractional occupation disabled.
  Guess Type is SAD.
  Energy threshold   = 1.00e-08
  Density threshold  = 1.00e-08
  Integral threshold = 0.00e+00

  ==> Primary Basis <==

  Basis Set: 6-31+G*
    Blend: 6-31+G*
    Number of shells: 144
    Number of basis function: 322
    Number of Cartesian functions: 322
    Spherical Harmonics?: false
    Max angular momentum: 2

  ==> DFT Potential <==

   => Composite Functional: WB97X-D <= 

    wB97X-D Hyb-GGA Exchange-Correlation Functional

    J.-D. Chai and M. Head-Gordon, Phys. Chem. Chem. Phys. 10, 6615 (2008)

    Deriv               =              1
    GGA                 =           TRUE
    Meta                =          FALSE

    Exchange Hybrid     =           TRUE
    MP2 Hybrid          =          FALSE

   => Exchange-Correlation Functionals <=

    1.0000   wB97D range-separated functional

   => Exact (HF) Exchange <=

    0.7780            HF,LR [omega = 0.2000]
    0.2220               HF 

   => Molecular Quadrature <=

    Radial Scheme          =       TREUTLER
    Pruning Scheme         =           FLAT
    Nuclear Scheme         =       TREUTLER

    BS radius alpha        =              1
    Pruning alpha          =              1
    Radial Points          =             75
    Spherical Points       =            302
    Total Points           =         520861
    Total Blocks           =           3841
    Max Points             =            256
    Max Functions          =            284

   => WB97X-D: Empirical Dispersion <=

    Chai and Head-Gordon Dispersion Correction
    Chai, J.-D.; Head-Gordon, M. (2010), J. Chem. Phys., 132: 6615-6620

        s6 =       1.000000

   => Loading Basis Set <=

    Name: (6-31+G* AUX)
    Role: JKFIT
    Keyword: DF_BASIS_SCF
    atoms 1             entry N          line   252 file /fsx/users/francis/anaconda3/envs/poltype-dev/share/psi4/basis/heavy-aug-cc-pvdz-jkfit.gbs 
    atoms 2-3, 6-12, 14 entry C          line   194 file /fsx/users/francis/anaconda3/envs/poltype-dev/share/psi4/basis/heavy-aug-cc-pvdz-jkfit.gbs 
    atoms 4-5           entry F          line   368 file /fsx/users/francis/anaconda3/envs/poltype-dev/share/psi4/basis/heavy-aug-cc-pvdz-jkfit.gbs 
    atoms 13            entry S          line   730 file /fsx/users/francis/anaconda3/envs/poltype-dev/share/psi4/basis/heavy-aug-cc-pvdz-jkfit.gbs 
    atoms 15-16         entry O          line   310 file /fsx/users/francis/anaconda3/envs/poltype-dev/share/psi4/basis/heavy-aug-cc-pvdz-jkfit.gbs 
    atoms 17-23         entry H          line   116 file /fsx/users/francis/anaconda3/envs/poltype-dev/share/psi4/basis/heavy-aug-cc-pvdz-jkfit.gbs 

  ==> Pre-Iterations <==

   -------------------------------------------------------
    Irrep   Nso     Nmo     Nalpha   Nbeta   Ndocc  Nsocc
   -------------------------------------------------------
     A        322     322       0       0       0       0
   -------------------------------------------------------
    Total     322     322      62      62      62       0
   -------------------------------------------------------

  ==> Integral Setup <==

  ==> DiskDFJK: Density-Fitted J/K Matrices <==

    J tasked:                  Yes
    K tasked:                  Yes
    wK tasked:                 Yes
    Omega:               2.000E-01
    OpenMP threads:              8
    Integrals threads:           8
    Memory [MiB]:             8426
    Algorithm:                Core
    Integral Cache:           NONE
    Schwarz Cutoff:          1E-12
    Fitting Condition:       1E-10

   => Auxiliary Basis Set <=

  Basis Set: (6-31+G* AUX)
    Blend: HEAVY-AUG-CC-PVDZ-JKFIT
    Number of shells: 523
    Number of basis function: 1840
    Number of Cartesian functions: 1840
    Spherical Harmonics?: false
    Max angular momentum: 3

  Cached 100.0% of DFT collocation blocks in 2.947 [GiB].

  Minimum eigenvalue in the overlap matrix is 6.1551427725E-07.
  Using Symmetric Orthogonalization.

  SCF Guess: Superposition of Atomic Densities via on-the-fly atomic UHF.

  ==> Iterations <==

                           Total Energy        Delta E     RMS |[F,P]|

   @DF-RKS iter SAD: -1187.20824891837765   -1.18721e+03   0.00000e+00 
   @DF-RKS iter   1: -1187.58515507616721   -3.76906e-01   3.29868e-03 DIIS
   @DF-RKS iter   2: -1187.60116361772589   -1.60085e-02   3.58396e-03 DIIS
   @DF-RKS iter   3: -1188.08255972851089   -4.81396e-01   8.13165e-04 DIIS
   @DF-RKS iter   4: -1188.10916231684496   -2.66026e-02   2.26404e-04 DIIS
   @DF-RKS iter   5: -1188.11171223740575   -2.54992e-03   6.70909e-05 DIIS
   @DF-RKS iter   6: -1188.11204177631430   -3.29539e-04   2.30923e-05 DIIS
   @DF-RKS iter   7: -1188.11209526023595   -5.34839e-05   9.09066e-06 DIIS
   @DF-RKS iter   8: -1188.11211159152481   -1.63313e-05   3.66794e-06 DIIS
   @DF-RKS iter   9: -1188.11211469158116   -3.10006e-06   2.30031e-06 DIIS
   @DF-RKS iter  10: -1188.11211512198997   -4.30409e-07   7.07944e-07 DIIS
   @DF-RKS iter  11: -1188.11211517717902   -5.51890e-08   2.89715e-07 DIIS
   @DF-RKS iter  12: -1188.11211518527307   -8.09405e-09   1.37247e-07 DIIS
   @DF-RKS iter  13: -1188.11211518737741   -2.10434e-09   5.08434e-08 DIIS
   @DF-RKS iter  14: -1188.11211518762616   -2.48747e-10   2.48925e-08 DIIS
   @DF-RKS iter  15: -1188.11211518768687   -6.07088e-11   1.09305e-08 DIIS
   @DF-RKS iter  16: -1188.11211518770210   -1.52340e-11   6.01091e-09 DIIS
  Energy and wave function converged.


  ==> Post-Iterations <==

    Orbital Energies [Eh]
    ---------------------

    Doubly Occupied:                                                      

       1A    -89.075301     2A    -24.878018     3A    -24.875126  
       4A    -19.310951     5A    -19.296656     6A    -14.545705  
       7A    -10.514068     8A    -10.461469     9A    -10.440347  
      10A    -10.413804    11A    -10.388648    12A    -10.359758  
      13A    -10.356851    14A    -10.356736    15A    -10.353970  
      16A    -10.348446    17A     -8.092732    18A     -6.043593  
      19A     -6.039176    20A     -6.032534    21A     -1.385038  
      22A     -1.328557    23A     -1.191994    24A     -1.180006  
      25A     -1.095311    26A     -1.000542    27A     -0.939941  
      28A     -0.904090    29A     -0.889863    30A     -0.868110  
      31A     -0.795496    32A     -0.768340    33A     -0.754575  
      34A     -0.741830    35A     -0.696374    36A     -0.680521  
      37A     -0.669233    38A     -0.646621    39A     -0.629634  
      40A     -0.592075    41A     -0.579868    42A     -0.568152  
      43A     -0.564265    44A     -0.561804    45A     -0.554278  
      46A     -0.553286    47A     -0.543162    48A     -0.536095  
      49A     -0.530937    50A     -0.519416    51A     -0.510698  
      52A     -0.504344    53A     -0.493216    54A     -0.482764  
      55A     -0.475025    56A     -0.442993    57A     -0.421248  
      58A     -0.398744    59A     -0.379903    60A     -0.371940  
      61A     -0.342087    62A     -0.325729  

    Virtual:                                                              

      63A     -0.054013    64A      0.007547    65A      0.038022  
      66A      0.043874    67A      0.058285    68A      0.060027  
      69A      0.063234    70A      0.074116    71A      0.077056  
      72A      0.090762    73A      0.091557    74A      0.097653  
      75A      0.105542    76A      0.108958    77A      0.114076  
      78A      0.117295    79A      0.122802    80A      0.127807  
      81A      0.135928    82A      0.139024    83A      0.142142  
      84A      0.146771    85A      0.157575    86A      0.161661  
      87A      0.163402    88A      0.171285    89A      0.175627  
      90A      0.177080    91A      0.183322    92A      0.187822  
      93A      0.192061    94A      0.196154    95A      0.203224  
      96A      0.206677    97A      0.213678    98A      0.216918  
      99A      0.221690   100A      0.227593   101A      0.234819  
     102A      0.238846   103A      0.239065   104A      0.240992  
     105A      0.246284   106A      0.250476   107A      0.252558  
     108A      0.259677   109A      0.261470   110A      0.273353  
     111A      0.278189   112A      0.279709   113A      0.284245  
     114A      0.289513   115A      0.296833   116A      0.297214  
     117A      0.303009   118A      0.308391   119A      0.314027  
     120A      0.317348   121A      0.319619   122A      0.328675  
     123A      0.329469   124A      0.340457   125A      0.353649  
     126A      0.358650   127A      0.363429   128A      0.368753  
     129A      0.378945   130A      0.380607   131A      0.388178  
     132A      0.390096   133A      0.393780   134A      0.398292  
     135A      0.406995   136A      0.413448   137A      0.420127  
     138A      0.429712   139A      0.443235   140A      0.443629  
     141A      0.455936   142A      0.464274   143A      0.477645  
     144A      0.485520   145A      0.497990   146A      0.506612  
     147A      0.523462   148A      0.529196   149A      0.536883  
     150A      0.548727   151A      0.558504   152A      0.571435  
     153A      0.586621   154A      0.600333   155A      0.601685  
     156A      0.636184   157A      0.656863   158A      0.673358  
     159A      0.686621   160A      0.700797   161A      0.715968  
     162A      0.732904   163A      0.744440   164A      0.747723  
     165A      0.765947   166A      0.773798   167A      0.788790  
     168A      0.798434   169A      0.814975   170A      0.821561  
     171A      0.827110   172A      0.862323   173A      0.865340  
     174A      0.874145   175A      0.880657   176A      0.892149  
     177A      0.907059   178A      0.910959   179A      0.929435  
     180A      0.940419   181A      0.953554   182A      0.968313  
     183A      0.975345   184A      0.989586   185A      1.000616  
     186A      1.021400   187A      1.041056   188A      1.051519  
     189A      1.067487   190A      1.071645   191A      1.079118  
     192A      1.096083   193A      1.110451   194A      1.135552  
     195A      1.163415   196A      1.165509   197A      1.194525  
     198A      1.197434   199A      1.202945   200A      1.212624  
     201A      1.225868   202A      1.229286   203A      1.264074  
     204A      1.281975   205A      1.291361   206A      1.318385  
     207A      1.322890   208A      1.334680   209A      1.339043  
     210A      1.362834   211A      1.392541   212A      1.401003  
     213A      1.410576   214A      1.417610   215A      1.431261  
     216A      1.445491   217A      1.447711   218A      1.460904  
     219A      1.468710   220A      1.483522   221A      1.490954  
     222A      1.514105   223A      1.521929   224A      1.529861  
     225A      1.546151   226A      1.595618   227A      1.615448  
     228A      1.647812   229A      1.659709   230A      1.668260  
     231A      1.703867   232A      1.744153   233A      1.752217  
     234A      1.754263   235A      1.761459   236A      1.766912  
     237A      1.773847   238A      1.781107   239A      1.791027  
     240A      1.815432   241A      1.835557   242A      1.858844  
     243A      1.869073   244A      1.890111   245A      1.897300  
     246A      1.904921   247A      1.916656   248A      1.942670  
     249A      1.959870   250A      1.964856   251A      1.969358  
     252A      2.003814   253A      2.035483   254A      2.039990  
     255A      2.052105   256A      2.060274   257A      2.073019  
     258A      2.087896   259A      2.096837   260A      2.109779  
     261A      2.141176   262A      2.149356   263A      2.162039  
     264A      2.196218   265A      2.204146   266A      2.207549  
     267A      2.241290   268A      2.254355   269A      2.260154  
     270A      2.274411   271A      2.302508   272A      2.305412  
     273A      2.325374   274A      2.333579   275A      2.350999  
     276A      2.363345   277A      2.379832   278A      2.400379  
     279A      2.460006   280A      2.463068   281A      2.506944  
     282A      2.511815   283A      2.564399   284A      2.624093  
     285A      2.652658   286A      2.670908   287A      2.701550  
     288A      2.719538   289A      2.732673   290A      2.763637  
     291A      2.766671   292A      2.818481   293A      2.823529  
     294A      2.848058   295A      2.893527   296A      2.940849  
     297A      2.960058   298A      3.024783   299A      3.109552  
     300A      3.150783   301A      3.212325   302A      3.235735  
     303A      3.333303   304A      3.374449   305A      3.459268  
     306A      3.479217   307A      4.037117   308A      4.275808  
     309A      4.301357   310A      4.327158   311A      4.361488  
     312A      4.370100   313A      4.409885   314A      4.465003  
     315A      4.482118   316A      4.520671   317A      4.577895  
     318A      4.774349   319A      4.831815   320A      5.097979  
     321A      5.708506   322A      7.116962  

    Final Occupation by Irrep:
              A 
    DOCC [    62 ]

  @DF-RKS Final Energy: -1188.11211518770210

   => Energetics <=

    Nuclear Repulsion Energy =           1178.7084903899819892
    One-Electron Energy =               -3971.3727288996146854
    Two-Electron Energy =                1694.0086245855538891
    DFT Exchange-Correlation Energy =     -89.4429080223894459
    Empirical Dispersion Energy =          -0.0135932412334665
    VV10 Nonlocal Energy =                  0.0000000000000000
    Total Energy =                      -1188.1121151877018747

Computation Completed


Properties will be evaluated at   0.000000,   0.000000,   0.000000 [a0]

Properties computed using the SCF density matrix

  Nuclear Dipole Moment: [e a0]
     X:    23.9649      Y:    -2.6824      Z:    -3.5021

  Electronic Dipole Moment: [e a0]
     X:   -21.2485      Y:     2.1463      Z:     3.2297

  Dipole Moment: [e a0]
     X:     2.7164      Y:    -0.5361      Z:    -0.2725     Total:     2.7822

  Dipole Moment: [D]
     X:     6.9044      Y:    -1.3627      Z:    -0.6926     Total:     7.0716


*** tstop() called on cpu-spot-dy-c5n2xlarge-1 at Mon Jun 21 23:26:19 2021
Module time:
	user time   =     572.23 seconds =       9.54 minutes
	system time =      10.41 seconds =       0.17 minutes
	total time  =         77 seconds =       1.28 minutes
Total time:
	user time   =     572.23 seconds =       9.54 minutes
	system time =      10.41 seconds =       0.17 minutes
	total time  =         77 seconds =       1.28 minutes

*** tstart() called on cpu-spot-dy-c5n2xlarge-1
*** at Mon Jun 21 23:26:19 2021


         ------------------------------------------------------------
                                   SCF GRAD                          
                          Rob Parrish, Justin Turney,                
                       Andy Simmonett, and Alex Sokolov              
         ------------------------------------------------------------

  ==> Geometry <==

    Molecular point group: c1
    Full point group: C1

    Geometry (in Angstrom), charge = 0, multiplicity = 1:

       Center              X                  Y                   Z               Mass       
    ------------   -----------------  -----------------  -----------------  -----------------
         N           -0.624106844335    -1.496732144632     0.438941876344    14.003074004430
         C           -1.912495844335    -1.378286144632     0.889283876344    12.000000000000
         C           -2.525671844335     0.060163855368     0.840385876344    12.000000000000
         F           -3.717829844335    -0.019256144632     0.155414876344    18.998403162730
         F           -2.797485844335     0.435509855368     2.136480876344    18.998403162730
         C           -1.659946844335     1.189923855368     0.182253876344    12.000000000000
         C           -0.283812844335     0.840438855368    -0.239117123656    12.000000000000
         C            0.553524155665     1.824454855368    -0.809813123656    12.000000000000
         C            1.863701155665     1.517978855368    -1.197695123656    12.000000000000
         C            2.369868155665     0.201422855368    -1.041695123656    12.000000000000
         C            1.526576155665    -0.787215144632    -0.485347123656    12.000000000000
         C            0.211312155665    -0.484674144632    -0.090842123656    12.000000000000
         S            4.030289155665    -0.253822144632    -1.470806123656    31.972071174400
         C            4.737410155665    -0.970358144632     0.039344876344    12.000000000000
         O           -2.512838844335    -2.357076144632     1.309220876344    15.994914619570
         O           -2.111492844335     2.323226855368     0.047414876344    15.994914619570
         H            2.484515155665     2.314550855368    -1.607380123656     1.007825032230
         H            0.156306155665     2.832465855368    -0.932965123656     1.007825032230
         H           -0.283077844335    -2.446229144632     0.501993876344     1.007825032230
         H            1.895013155665    -1.806976144632    -0.370955123656     1.007825032230
         H            4.809009155665    -0.192305144632     0.805965876344     1.007825032230
         H            4.114313155665    -1.794380144632     0.397383876344     1.007825032230
         H            5.739439155665    -1.346898144632    -0.187693123656     1.007825032230

  Nuclear repulsion = 1178.708490389981989

  ==> Basis Set <==

  Basis Set: 6-31+G*
    Blend: 6-31+G*
    Number of shells: 144
    Number of basis function: 322
    Number of Cartesian functions: 322
    Spherical Harmonics?: false
    Max angular momentum: 2

  ==> DFJKGrad: Density-Fitted SCF Gradients <==

    Gradient:                    1
    J tasked:                  Yes
    K tasked:                  Yes
    wK tasked:                 Yes
    Omega:               2.000E-01
    OpenMP threads:              8
    Integrals threads:           8
    Memory [MiB]:            11444
    Schwarz Cutoff:          0E+00
    Fitting Condition:       1E-10

   => Auxiliary Basis Set <=

  Basis Set: (6-31+G* AUX)
    Blend: HEAVY-AUG-CC-PVDZ-JKFIT
    Number of shells: 523
    Number of basis function: 1840
    Number of Cartesian functions: 1840
    Spherical Harmonics?: false
    Max angular momentum: 3

  ==> DFT Potential <==

   => Composite Functional: WB97X-D <= 

    wB97X-D Hyb-GGA Exchange-Correlation Functional

    J.-D. Chai and M. Head-Gordon, Phys. Chem. Chem. Phys. 10, 6615 (2008)

    Deriv               =              1
    GGA                 =           TRUE
    Meta                =          FALSE

    Exchange Hybrid     =           TRUE
    MP2 Hybrid          =          FALSE

   => Exchange-Correlation Functionals <=

    1.0000   wB97D range-separated functional

   => Exact (HF) Exchange <=

    0.7780            HF,LR [omega = 0.2000]
    0.2220               HF 

   => Molecular Quadrature <=

    Radial Scheme          =       TREUTLER
    Pruning Scheme         =           FLAT
    Nuclear Scheme         =       TREUTLER

    BS radius alpha        =              1
    Pruning alpha          =              1
    Radial Points          =             75
    Spherical Points       =            302
    Total Points           =         520861
    Total Blocks           =           3841
    Max Points             =            256
    Max Functions          =            284


  -Total Gradient:
     Atom            X                  Y                   Z
    ------   -----------------  -----------------  -----------------
       1       -0.006017795400    -0.012186563582     0.004089771184
       2        0.004810925584     0.013051210327    -0.004859652134
       3        0.014491178492    -0.001078707691    -0.001786338228
       4       -0.017280522309    -0.001124806019    -0.010702389214
       5       -0.003359099298     0.004579475476     0.016041653905
       6       -0.000454493426    -0.023634603659     0.005238122685
       7       -0.005501341422     0.008121874853     0.001647187481
       8       -0.003883164341     0.012365026012    -0.000882165514
       9        0.002244850651     0.004007005770    -0.000338021116
      10        0.017933808062     0.002454814287    -0.020064614083
      11        0.005463390962    -0.006498891024     0.000986887416
      12        0.002483038111    -0.006009539502     0.000531893342
      13       -0.007130515075    -0.007069313782     0.016911367176
      14        0.010079086460    -0.003413088232    -0.007777287966
      15       -0.003255823053    -0.022641957399     0.005915755975
      16       -0.003101153552     0.030231148644    -0.006531989788
      17       -0.000683405363     0.004587334771    -0.000849120784
      18       -0.001728727380     0.003387644267    -0.001134461182
      19       -0.004114149289     0.000963638353     0.001157690277
      20        0.001421815247    -0.002188956343     0.000848505059
      21       -0.000898750648     0.003107262979    -0.000974981287
      22       -0.002989376243     0.000522918055    -0.001739469394
      23        0.002529271315    -0.001475929755     0.003660900828


*** tstop() called on cpu-spot-dy-c5n2xlarge-1 at Mon Jun 21 23:26:42 2021
Module time:
	user time   =     147.32 seconds =       2.46 minutes
	system time =       3.62 seconds =       0.06 minutes
	total time  =         23 seconds =       0.38 minutes
Total time:
	user time   =     719.56 seconds =      11.99 minutes
	system time =      14.03 seconds =       0.23 minutes
	total time  =        100 seconds =       1.67 minutes

			-----------------------------------------
			 OPTKING 2.0: for geometry optimizations 
			  - R.A. King,  Bethel University        
			-----------------------------------------
	At level 1: Red. Int., RFO, no backsteps, dynamic trust

	Internal coordinates to be generated automatically.
	Detected frag 1 with atoms:  1 2 3 4 5 6 7 8 9 10 11 12 13 14 15 16 17 18 19 20
	 21 22 23
	---Fragment 1 Bond Connectivity---
	 1 : 2 12 19
	 2 : 1 3 15
	 3 : 2 4 5 6
	 4 : 3
	 5 : 3
	 6 : 3 7 16
	 7 : 6 8 12
	 8 : 7 9 18
	 9 : 8 10 17
	 10 : 9 11 13
	 11 : 10 12 20
	 12 : 1 7 11
	 13 : 10 14
	 14 : 13 21 22 23
	 15 : 2
	 16 : 6
	 17 : 9
	 18 : 8
	 19 : 1
	 20 : 11
	 21 : 14
	 22 : 14
	 23 : 14

	Assuming in current code that numbering for constraints corresponds to unified fragment.
	Frozen dihedral atom list: 
	    11    10    13    14
	     9    10    13    14
	    21    14    13    10
	---Fragment 1 Geometry and Gradient---
	 N          -1.1793910088       -2.8284138365        0.8294799313
	 C          -3.6140933619       -2.6045833359        1.6805029741
	 C          -4.7728280686        0.1136932093        1.5880991460
	 F          -7.0256801868       -0.0363888396        0.2936915521
	 F          -5.2864820856        0.8229943516        4.0373637286
	 C          -3.1368449186        2.2486301968        0.3444099116
	 C          -0.5363285467        1.5881992618       -0.4518658756
	 C           1.0460090580        3.4477200049       -1.5303250165
	 C           3.5218847639        2.8685643009       -2.2633157655
	 C           4.4784017677        0.3806340321       -1.9685184899
	 C           2.8848108439       -1.4876210252       -0.9171731395
	 C           0.3993221012       -0.9159013934       -0.1716667344
	 S           7.6161427106       -0.4796543379       -2.7794207574
	 C           8.9524077382       -1.8337111370        0.0743510407
	 O          -4.7485772132       -4.4542283702        2.4740688940
	 O          -3.9901431917        4.3902624840        0.0896011306
	 H           4.6950531988        4.3738672201       -3.0375082132
	 H           0.2953758259        5.3525847264       -1.7630485683
	 H          -0.5349395980       -4.6227031235        0.9486309429
	 H           3.5810558683       -3.4146900286       -0.7010035885
	 H           9.0877102390       -0.3634040559        1.5230547728
	 H           7.7749250586       -3.3908870383        0.7509466930
	 H          10.8459681179       -2.5452686122       -0.3546885993
	            -0.0060177954       -0.0121865636        0.0040897712
	             0.0048109256        0.0130512103       -0.0048596521
	             0.0144911785       -0.0010787077       -0.0017863382
	            -0.0172805223       -0.0011248060       -0.0107023892
	            -0.0033590993        0.0045794755        0.0160416539
	            -0.0004544934       -0.0236346037        0.0052381227
	            -0.0055013414        0.0081218749        0.0016471875
	            -0.0038831643        0.0123650260       -0.0008821655
	             0.0022448507        0.0040070058       -0.0003380211
	             0.0179338081        0.0024548143       -0.0200646141
	             0.0054633910       -0.0064988910        0.0009868874
	             0.0024830381       -0.0060095395        0.0005318933
	            -0.0071305151       -0.0070693138        0.0169113672
	             0.0100790865       -0.0034130882       -0.0077772880
	            -0.0032558231       -0.0226419574        0.0059157560
	            -0.0031011536        0.0302311486       -0.0065319898
	            -0.0006834054        0.0045873348       -0.0008491208
	            -0.0017287274        0.0033876443       -0.0011344612
	            -0.0041141493        0.0009636384        0.0011576903
	             0.0014218152       -0.0021889563        0.0008485051
	            -0.0008987506        0.0031072630       -0.0009749813
	            -0.0029893762        0.0005229181       -0.0017394694
	             0.0025292713       -0.0014759298        0.0036609008

	Previous optimization step data not found.  Starting new optimization.

	---Fragment 1 Intrafragment Coordinates---
	 - Coordinate -           - BOHR/RAD -       - ANG/DEG -
	 R(1,2)           =         2.588845	       1.369958
	 R(1,12)          =         2.674385	       1.415223
	 R(1,19)          =         1.910233	       1.010852
	 R(2,3)           =         2.956388	       1.564453
	 R(2,15)          =         2.310408	       1.222615
	 R(3,4)           =         2.602568	       1.377219
	 R(3,5)           =         2.601124	       1.376455
	 R(3,6)           =         2.963302	       1.568112
	 R(6,7)           =         2.798734	       1.481026
	 R(6,16)          =         2.319404	       1.227376
	 R(7,8)           =         2.669210	       1.412485
	 R(7,12)          =         2.687838	       1.422343
	 R(8,9)           =         2.646253	       1.400337
	 R(8,18)          =         2.060612	       1.090429
	 R(9,10)          =         2.681721	       1.419106
	 R(9,17)          =         2.059523	       1.089853
	 R(10,11)         =         2.671186	       1.413531
	 R(10,13)         =         3.353070	       1.774368
	 R(11,12)         =         2.657122	       1.406088
	 R(11,20)         =         2.060360	       1.090295
	 R(13,14)         =         3.429736	       1.814938
	 R(14,21)         =         2.068539	       1.094624
	 R(14,22)         =         2.066166	       1.093368
	 R(14,23)         =         2.067839	       1.094254
	 B(1,2,3)         =         2.023977	     115.965349
	 B(1,2,15)        =         2.100743	     120.363719
	 B(1,12,7)        =         2.094132	     119.984940
	 B(1,12,11)       =         2.098255	     120.221184
	 B(2,1,12)        =         2.234946	     128.052988
	 B(2,1,19)        =         1.958419	     112.209130
	 B(2,3,4)         =         1.877375	     107.565684
	 B(2,3,5)         =         1.874121	     107.379236
	 B(2,3,6)         =         2.047852	     117.333287
	 B(3,2,15)        =         2.158403	     123.667381
	 B(3,6,7)         =         2.051473	     117.540766
	 B(3,6,16)        =         2.103935	     120.546569
	 B(4,3,5)         =         1.889260	     108.246609
	 B(4,3,6)         =         1.886729	     108.101610
	 B(5,3,6)         =         1.883628	     107.923913
	 B(6,7,8)         =         2.095997	     120.091761
	 B(6,7,12)        =         2.110213	     120.906290
	 B(7,6,16)        =         2.127596	     121.902257
	 B(7,8,9)         =         2.110742	     120.936581
	 B(7,8,18)        =         2.064266	     118.273743
	 B(7,12,11)       =         2.090736	     119.790360
	 B(8,7,12)        =         2.076922	     118.998854
	 B(8,9,10)        =         2.101696	     120.418323
	 B(8,9,17)        =         2.068166	     118.497197
	 B(9,8,18)        =         2.108141	     120.787583
	 B(9,10,11)       =         2.070704	     118.642602
	 B(9,10,13)       =         2.147444	     123.039482
	 B(10,9,17)       =         2.113238	     121.079592
	 B(10,11,12)      =         2.115295	     121.197502
	 B(10,11,20)      =         2.087317	     119.594433
	 B(10,13,14)      =         1.838645	     105.346621
	 B(11,10,13)      =         2.064639	     118.295076
	 B(12,1,19)       =         2.089686	     119.730168
	 B(12,11,20)      =         2.080484	     119.202962
	 B(13,14,21)      =         1.904561	     109.123331
	 B(13,14,22)      =         1.926212	     110.363796
	 B(13,14,23)      =         1.896514	     108.662249
	 B(21,14,22)      =         1.921576	     110.098198
	 B(21,14,23)      =         1.907103	     109.268945
	 B(22,14,23)      =         1.907590	     109.296843
	 D(1,2,3,4)       =         2.213113	     126.802033
	 D(1,2,3,5)       =        -2.040100	    -116.889144
	 D(1,2,3,6)       =         0.083149	       4.764110
	 D(1,12,7,6)      =         0.023928	       1.370951
	 D(1,12,7,8)      =        -3.106505	    -177.989604
	 D(1,12,11,10)    =         3.119336	     178.724776
	 D(1,12,11,20)    =        -0.007854	      -0.450020
	 D(2,1,12,7)      =        -0.031271	      -1.791674
	 D(2,1,12,11)     =         3.122253	     178.891906
	 D(2,3,6,7)       =        -0.088969	      -5.097565
	 D(2,3,6,16)      =         3.072720	     176.053873
	 D(3,2,1,12)      =        -0.025204	      -1.444094
	 D(3,2,1,19)      =         3.134298	     179.582036
	 D(3,6,7,8)       =        -3.116351	    -178.553769
	 D(3,6,7,12)      =         0.036523	       2.092628
	 D(4,3,2,15)      =        -0.940436	     -53.882993
	 D(4,3,6,7)       =        -2.214098	    -126.858485
	 D(4,3,6,16)      =         0.947591	      54.292954
	 D(5,3,2,15)      =         1.089536	      62.425829
	 D(5,3,6,7)       =         2.029346	     116.272985
	 D(5,3,6,16)      =        -1.092150	     -62.575577
	 D(6,3,2,15)      =        -3.070399	    -175.920916
	 D(6,7,8,9)       =         3.126299	     179.123717
	 D(6,7,8,18)      =        -0.006179	      -0.354017
	 D(6,7,12,11)     =        -3.129544	    -179.309667
	 D(7,8,9,10)      =         0.016340	       0.936234
	 D(7,8,9,17)      =        -3.111365	    -178.268089
	 D(7,12,1,19)     =         3.091228	     177.114314
	 D(7,12,11,10)    =        -0.010349	      -0.592977
	 D(7,12,11,20)    =        -3.137540	    -179.767773
	 D(8,7,6,16)      =         0.004855	       0.278155
	 D(8,7,12,11)     =         0.023209	       1.329778
	 D(8,9,10,11)     =        -0.002927	      -0.167720
	 D(8,9,10,13)     =        -3.113630	    -178.397857
	 D(9,8,7,12)      =        -0.026361	      -1.510395
	 D(9,10,11,12)    =         0.000058	       0.003329
	 D(9,10,11,20)    =         3.127193	     179.174941
	*D(9,10,13,14)    =         2.164738	     124.030341
	 D(10,9,8,18)     =        -3.134597	    -179.599178
	*D(10,13,14,21)   =        -1.143921	     -65.541826
	 D(10,13,14,22)   =         0.969807	      55.565826
	 D(10,13,14,23)   =         3.061224	     175.395198
	 D(11,10,9,17)    =         3.124415	     179.015801
	*D(11,10,13,14)   =        -0.946066	     -54.205609
	 D(11,12,1,19)    =        -0.038434	      -2.202107
	 D(12,1,2,15)     =         3.127921	     179.216666
	 D(12,7,6,16)     =        -3.125456	    -179.075448
	 D(12,7,8,18)     =         3.124347	     179.011870
	 D(12,11,10,13)   =         3.112243	     178.318360
	 D(13,10,9,17)    =         0.013712	       0.785664
	 D(13,10,11,20)   =        -0.043808	      -2.510027
	 D(15,2,1,19)     =         0.004238	       0.242795
	 D(17,9,8,18)     =         0.020883	       1.196499

	Current energy   :     -1188.1121151877

	Generating empirical Hessian (Schlegel '84) for each fragment.
	Taking RFO optimization step.
	Going to follow RFO solution 1.
	Using RFO vector 1.
	Norm of target step-size    0.22028
	Projected energy change by RFO approximation:        -0.0136270905

	Back-transformation to cartesian coordinates...
	Successfully converged to displaced geometry.

	Back-transformation to cartesian coordinates to adjust frozen coordinates...
	Successfully converged to displaced geometry.

	--- Internal Coordinate Step in ANG or DEG, aJ/ANG or AJ/DEG ---
	 ---------------------------------------------------------------------------
	   Coordinate                Previous        Force       Change         New 
	   ----------                --------       ------       ------       ------
	    1 R(1,2)          =      1.369958    -0.007554    -0.000884     1.369074
	    2 R(1,12)         =      1.415223    -0.123581    -0.018225     1.396998
	    3 R(1,19)         =      1.010852     0.018392     0.002502     1.013353
	    4 R(2,3)          =      1.564453    -0.096241    -0.021327     1.543126
	    5 R(2,15)         =      1.222615    -0.179534    -0.012059     1.210556
	    6 R(3,4)          =      1.377219    -0.167798    -0.021131     1.356088
	    7 R(3,5)          =      1.376455    -0.140539    -0.017649     1.358806
	    8 R(3,6)          =      1.568112    -0.090253    -0.020346     1.547766
	    9 R(6,7)          =      1.481026    -0.061776    -0.011247     1.469779
	   10 R(6,16)         =      1.227376    -0.245382    -0.016843     1.210533
	   11 R(7,8)          =      1.412485    -0.110050    -0.015846     1.396639
	   12 R(7,12)         =      1.422343    -0.129761    -0.019822     1.402521
	   13 R(8,9)          =      1.400337    -0.122705    -0.016829     1.383508
	   14 R(8,18)         =      1.090429    -0.032134    -0.005709     1.084720
	   15 R(9,10)         =      1.419106    -0.146773    -0.021336     1.397769
	   16 R(9,17)         =      1.089853    -0.026722    -0.004739     1.085114
	   17 R(10,11)        =      1.413531    -0.112125    -0.015921     1.397610
	   18 R(10,13)        =      1.774368    -0.007838    -0.001699     1.772669
	   19 R(11,12)        =      1.406088    -0.121055    -0.016853     1.389236
	   20 R(11,20)        =      1.090295    -0.021478    -0.003814     1.086481
	   21 R(13,14)        =      1.814938     0.014807     0.003607     1.818545
	   22 R(14,21)        =      1.094624    -0.012159    -0.002189     1.092434
	   23 R(14,22)        =      1.093368    -0.006368    -0.001142     1.092226
	   24 R(14,23)        =      1.094254    -0.016636    -0.002992     1.091262
	   25 B(1,2,3)        =    115.965349    -0.000081    -0.110797   115.854552
	   26 B(1,2,15)       =    120.363719     0.000846     2.372592   122.736311
	   27 B(1,12,7)       =    119.984940     0.000246     0.489252   120.474191
	   28 B(1,12,11)      =    120.221184    -0.000324    -0.793284   119.427900
	   29 B(2,1,12)       =    128.052988    -0.000163    -0.575077   127.477911
	   30 B(2,1,19)       =    112.209130     0.000359     1.502837   113.711967
	   31 B(2,3,4)        =    107.565684    -0.000020    -0.014090   107.551594
	   32 B(2,3,5)        =    107.379236    -0.000018    -0.192219   107.187017
	   33 B(2,3,6)        =    117.333287     0.000061     0.446273   117.779559
	   34 B(3,2,15)       =    123.667381    -0.000766    -2.260306   121.407075
	   35 B(3,6,7)        =    117.540766    -0.000106    -0.234506   117.306260
	   36 B(3,6,16)       =    120.546569    -0.000730    -2.112272   118.434297
	   37 B(4,3,5)        =    108.246609    -0.000013    -0.189743   108.056866
	   38 B(4,3,6)        =    108.101610     0.000015     0.111240   108.212851
	   39 B(5,3,6)        =    107.923913    -0.000031    -0.209994   107.713919
	   40 B(6,7,8)        =    120.091761    -0.000032     0.010574   120.102336
	   41 B(6,7,12)       =    120.906290     0.000044     0.004845   120.911135
	   42 B(7,6,16)       =    121.902257     0.000836     2.353808   124.256065
	   43 B(7,8,9)        =    120.936581     0.000050     0.136375   121.072956
	   44 B(7,8,18)       =    118.273743    -0.000017    -0.069937   118.203806
	   45 B(7,12,11)      =    119.790360     0.000078     0.302051   120.092411
	   46 B(8,7,12)       =    118.998854    -0.000012    -0.012351   118.986504
	   47 B(8,9,10)       =    120.418323    -0.000186    -0.569328   119.848994
	   48 B(8,9,17)       =    118.497197     0.000362     1.478919   119.976116
	   49 B(9,8,18)       =    120.787583    -0.000034    -0.074973   120.712609
	   50 B(9,10,11)      =    118.642602     0.000326     0.914402   119.557003
	   51 B(9,10,13)      =    123.039482    -0.001081    -3.078998   119.960484
	   52 B(10,9,17)      =    121.079592    -0.000175    -0.904797   120.174795
	   53 B(10,11,12)     =    121.197502    -0.000255    -0.770937   120.426565
	   54 B(10,11,20)     =    119.594433     0.000149     0.423144   120.017577
	   55 B(10,13,14)     =    105.346621    -0.001639    -4.685793   100.660828
	   56 B(11,10,13)     =    118.295076     0.000755     2.164121   120.459197
	   57 B(12,1,19)      =    119.730168    -0.000196    -0.929052   118.801117
	   58 B(12,11,20)     =    119.202962     0.000106     0.332810   119.535772
	   59 B(13,14,21)     =    109.123331     0.000416     2.026398   111.149730
	   60 B(13,14,22)     =    110.363796     0.000390     1.842182   112.205977
	   61 B(13,14,23)     =    108.662249    -0.000645    -3.172245   105.490005
	   62 B(21,14,22)     =    110.098198    -0.000200    -0.206198   109.892000
	   63 B(21,14,23)     =    109.268945     0.000084    -0.055773   109.213172
	   64 B(22,14,23)     =    109.296843    -0.000053    -0.556107   108.740736
	   65 D(1,2,3,4)      =    126.802033     0.000007     0.304253   127.106286
	   66 D(1,2,3,5)      =   -116.889144    -0.000001    -0.020566  -116.909710
	   67 D(1,2,3,6)      =      4.764110    -0.000004    -0.146128     4.617983
	   68 D(1,12,7,6)     =      1.370951    -0.000002    -0.128290     1.242660
	   69 D(1,12,7,8)     =   -177.989604    -0.000008    -0.826369  -178.815973
	   70 D(1,12,11,10)   =    178.724776     0.000003     0.236659   178.961435
	   71 D(1,12,11,20)   =     -0.450020     0.000010     1.041314     0.591294
	   72 D(2,1,12,7)     =     -1.791674     0.000003     0.238017    -1.553657
	   73 D(2,1,12,11)    =    178.891906     0.000003     0.406576   179.298481
	   74 D(2,3,6,7)      =     -5.097565     0.000005     0.227802    -4.869763
	   75 D(2,3,6,16)     =    176.053873    -0.000001    -0.283786   175.770088
	   76 D(3,2,1,12)     =     -1.444094     0.000001    -0.074888    -1.518982
	   77 D(3,2,1,19)     =    179.582036     0.000001     0.014596   179.596631
	   78 D(3,6,7,8)      =   -178.553769     0.000005     0.603822  -177.949946
	   79 D(3,6,7,12)     =      2.092628    -0.000001    -0.101859     1.990770
	   80 D(4,3,2,15)     =    -53.882993     0.000009     0.480486   -53.402507
	   81 D(4,3,6,7)      =   -126.858485    -0.000002    -0.162344  -127.020829
	   82 D(4,3,6,16)     =     54.292954    -0.000008    -0.673931    53.619022
	   83 D(5,3,2,15)     =     62.425829     0.000001     0.155667    62.581496
	   84 D(5,3,6,7)      =    116.272985     0.000003     0.113511   116.386495
	   85 D(5,3,6,16)     =    -62.575577    -0.000002    -0.398076   -62.973653
	   86 D(6,3,2,15)     =   -175.920916    -0.000002     0.030105  -175.890811
	   87 D(6,7,8,9)      =    179.123717    -0.000001    -0.161858   178.961859
	   88 D(6,7,8,18)     =     -0.354017     0.000005     0.493668     0.139651
	   89 D(6,7,12,11)    =   -179.309667    -0.000003    -0.305482  -179.615149
	   90 D(7,8,9,10)     =      0.936234     0.000005     0.547038     1.483272
	   91 D(7,8,9,17)     =   -178.268089    -0.000002    -0.136762  -178.404850
	   92 D(7,12,1,19)    =    177.114314     0.000003     0.166400   177.280714
	   93 D(7,12,11,10)   =     -0.592977     0.000002     0.403241    -0.189736
	   94 D(7,12,11,20)   =   -179.767773     0.000010     1.207896  -178.559877
	   95 D(8,7,6,16)     =      0.278155     0.000006     1.091145     1.369300
	   96 D(8,7,12,11)    =      1.329778    -0.000009    -1.003560     0.326218
	   97 D(8,9,10,11)    =     -0.167720    -0.000011    -1.152203    -1.319923
	   98 D(8,9,10,13)    =   -178.397857    -0.000013    -1.173991  -179.571849
	   99 D(9,8,7,12)     =     -1.510395     0.000005     0.530402    -0.979993
	  100 D(9,10,11,12)   =      0.003329     0.000008     0.679242     0.682571
	  101 D(9,10,11,20)   =    179.174941     0.000000    -0.130093   179.044848
	  102 *D(9,10,13,14)  =    124.030341     0.000000    -0.000000   124.030341
	  103 D(10,9,8,18)    =   -179.599178    -0.000001    -0.124845  -179.724022
	  104 *D(10,13,14,21) =    -65.541826    -0.000000     0.000000   -65.541826
	  105 D(10,13,14,22)  =     55.565826     0.000061     2.394787    57.960613
	  106 D(10,13,14,23)  =    175.395198     0.000008     0.809972   176.205169
	  107 D(11,10,9,17)   =    179.015801    -0.000003    -0.447826   178.567974
	  108 *D(11,10,13,14) =    -54.205609     0.000000     0.000000   -54.205609
	  109 D(11,12,1,19)   =     -2.202107     0.000003     0.334959    -1.867148
	  110 D(12,1,2,15)    =    179.216666     0.000001    -0.219403   178.997263
	  111 D(12,7,6,16)    =   -179.075448    -0.000000     0.385464  -178.689984
	  112 D(12,7,8,18)    =    179.011870     0.000011     1.185929   180.197799
	  113 D(12,11,10,13)  =    178.318360     0.000002     0.607251   178.925611
	  114 D(13,10,9,17)   =      0.785664    -0.000005    -0.469615     0.316049
	  115 D(13,10,11,20)  =     -2.510027    -0.000006    -0.202083    -2.712111
	  116 D(15,2,1,19)    =      0.242795     0.000001    -0.129919     0.112876
	  117 D(17,9,8,18)    =      1.196499    -0.000008    -0.808644     0.387855
	 ---------------------------------------------------------------------------
	Successfully symmetrized geometry.

  ==> Convergence Check <==

  Measures of convergence in internal coordinates in au.
  Criteria marked as inactive (o), active & met (*), and active & unmet ( ).
  --------------------------------------------------------------------------------------------- ~
   Step     Total Energy     Delta E     MAX Force     RMS Force      MAX Disp      RMS Disp    ~
  --------------------------------------------------------------------------------------------- ~
    Convergence Criteria             o    2.50e-03 *    1.70e-03 *    1.00e-02 *    6.70e-03 *  ~
  --------------------------------------------------------------------------------------------- ~
      1   -1188.11211519   -1.19e+03 o    2.98e-02      6.87e-03      8.18e-02      2.04e-02    ~
  ---------------------------------------------------------------------------------------------

	Writing optimization data to binary file.
	Structure for next step:
	Cartesian Geometry (in Angstrom)
	    N    -0.5582649407  -1.5085839343   0.4810437444
	    C    -1.8270606733  -1.4002340404   0.9838173484
	    C    -2.4415317335   0.0150836826   0.9605774199
	    F    -3.6444755599  -0.0714866173   0.3405715735
	    F    -2.6582966932   0.3799435455   2.2514083414
	    C    -1.6279137290   1.1436986264   0.2824674987
	    C    -0.2784827621   0.8090909520  -0.1943172470
	    C     0.5229910194   1.7937357935  -0.7763095442
	    C     1.8039927061   1.5060107604  -1.2125940618
	    C     2.3010231847   0.2043762740  -1.1009370374
	    C     1.5067174778  -0.7896811086  -0.5228012689
	    C     0.2257735331  -0.4940671797  -0.0736122795
	    S     3.9459988700  -0.1651230142  -1.6485514662
	    C     4.6539486472  -0.8755787268  -0.1315915377
	    O    -2.4370322183  -2.3455242244   1.4308155356
	    O    -2.1313726143   2.2405379081   0.1883230504
	    H     2.4207076422   2.2906681195  -1.6385607550
	    H     0.1215957713   2.7979460297  -0.8603354198
	    H    -0.1842828971  -2.4496785380   0.5179678297
	    H     1.8795617878  -1.8073163567  -0.4463381353
	    H     4.7179638600  -0.1271236542   0.6615853651
	    H     4.0904758993  -1.7425943431   0.2201759697
	    H     5.6604809398  -1.1981722735  -0.4030287653
			--------------------------
			 OPTKING Finished Execution 
			--------------------------

    Structure for next step:
    Molecular point group: c1
    Full point group: C1

    Geometry (in Angstrom), charge = 0, multiplicity = 1:

    N           -0.568374755925    -1.502297352730     0.457248826484
    C           -1.837170493496    -1.393947458482     0.960022432550
    C           -2.451641556131     0.021370270143     0.936782503956
    F           -3.654585387210    -0.065200030147     0.316776655097
    F           -2.668406516660     0.386230134490     2.227613430515
    C           -1.638023548409     1.149985218315     0.258672580061
    C           -0.288592576217     0.815377542659    -0.218112167522
    C            0.512881208466     1.800022388024    -0.800104467003
    C            1.793882900174     1.512297353826    -1.236388986347
    C            2.290913380694     0.210662862288    -1.124731961476
    C            1.496607670717    -0.783394524261    -0.546596190717
    C            0.215663720942    -0.487780594185    -0.097407199555
    S            3.935889072461    -0.158836427386    -1.672346392487
    C            4.643838852480    -0.869292142726    -0.155386457974
    O           -2.447142040927    -2.339237646142     1.407020621448
    O           -2.141482435646     2.246824504392     0.164528131352
    H            2.410597838682     2.296954715950    -1.662355681190
    H            0.111485958819     2.804232628179    -0.884130342961
    H           -0.194392710812    -2.443391960137     0.494172911955
    H            1.869451982131    -1.801029776346    -0.470133056809
    H            4.707854065534    -0.120837067203     0.637790447929
    H            4.080366102398    -1.736307762499     0.196381050776
    H            5.650371149058    -1.191885690790    -0.426823686661

gradient() will perform analytic gradient computation.

*** tstart() called on cpu-spot-dy-c5n2xlarge-1
*** at Mon Jun 21 23:26:43 2021

   => Loading Basis Set <=

    Name: 6-31+G*
    Role: ORBITAL
    Keyword: BASIS
    atoms 1             entry N          line   138 file /fsx/users/francis/anaconda3/envs/poltype-dev/share/psi4/basis/6-31pgs.gbs 
    atoms 2-3, 6-12, 14 entry C          line   119 file /fsx/users/francis/anaconda3/envs/poltype-dev/share/psi4/basis/6-31pgs.gbs 
    atoms 4-5           entry F          line   176 file /fsx/users/francis/anaconda3/envs/poltype-dev/share/psi4/basis/6-31pgs.gbs 
    atoms 13            entry S          line   344 file /fsx/users/francis/anaconda3/envs/poltype-dev/share/psi4/basis/6-31pgs.gbs 
    atoms 15-16         entry O          line   157 file /fsx/users/francis/anaconda3/envs/poltype-dev/share/psi4/basis/6-31pgs.gbs 
    atoms 17-23         entry H          line    46 file /fsx/users/francis/anaconda3/envs/poltype-dev/share/psi4/basis/6-31pgs.gbs 


         ---------------------------------------------------------
                                   SCF
               by Justin Turney, Rob Parrish, Andy Simmonett
                          and Daniel G. A. Smith
                              RKS Reference
                        8 Threads,  15258 MiB Core
         ---------------------------------------------------------

  ==> Geometry <==

    Molecular point group: c1
    Full point group: C1

    Geometry (in Angstrom), charge = 0, multiplicity = 1:

       Center              X                  Y                   Z               Mass       
    ------------   -----------------  -----------------  -----------------  -----------------
         N           -0.568374755925    -1.502297352730     0.457248826484    14.003074004430
         C           -1.837170493496    -1.393947458482     0.960022432550    12.000000000000
         C           -2.451641556131     0.021370270143     0.936782503956    12.000000000000
         F           -3.654585387210    -0.065200030147     0.316776655097    18.998403162730
         F           -2.668406516660     0.386230134490     2.227613430515    18.998403162730
         C           -1.638023548409     1.149985218315     0.258672580061    12.000000000000
         C           -0.288592576217     0.815377542659    -0.218112167522    12.000000000000
         C            0.512881208466     1.800022388024    -0.800104467003    12.000000000000
         C            1.793882900174     1.512297353826    -1.236388986347    12.000000000000
         C            2.290913380694     0.210662862288    -1.124731961476    12.000000000000
         C            1.496607670717    -0.783394524261    -0.546596190717    12.000000000000
         C            0.215663720942    -0.487780594185    -0.097407199555    12.000000000000
         S            3.935889072461    -0.158836427386    -1.672346392487    31.972071174400
         C            4.643838852480    -0.869292142726    -0.155386457974    12.000000000000
         O           -2.447142040927    -2.339237646142     1.407020621448    15.994914619570
         O           -2.141482435646     2.246824504392     0.164528131352    15.994914619570
         H            2.410597838682     2.296954715950    -1.662355681190     1.007825032230
         H            0.111485958819     2.804232628179    -0.884130342961     1.007825032230
         H           -0.194392710812    -2.443391960137     0.494172911955     1.007825032230
         H            1.869451982131    -1.801029776346    -0.470133056809     1.007825032230
         H            4.707854065534    -0.120837067203     0.637790447929     1.007825032230
         H            4.080366102398    -1.736307762499     0.196381050776     1.007825032230
         H            5.650371149058    -1.191885690790    -0.426823686661     1.007825032230

  Running in c1 symmetry.

  Rotational constants: A =      0.03612  B =      0.00869  C =      0.00746 [cm^-1]
  Rotational constants: A =   1082.95769  B =    260.61001  C =    223.63316 [MHz]
  Nuclear repulsion = 1192.130216035232252

  Charge       = 0
  Multiplicity = 1
  Electrons    = 124
  Nalpha       = 62
  Nbeta        = 62

  ==> Algorithm <==

  SCF Algorithm Type is DF.
  DIIS enabled.
  MOM disabled.
  Fractional occupation disabled.
  Guess Type is READ.
  Energy threshold   = 1.00e-08
  Density threshold  = 1.00e-08
  Integral threshold = 0.00e+00

  ==> Primary Basis <==

  Basis Set: 6-31+G*
    Blend: 6-31+G*
    Number of shells: 144
    Number of basis function: 322
    Number of Cartesian functions: 322
    Spherical Harmonics?: false
    Max angular momentum: 2

  ==> DFT Potential <==

   => Composite Functional: WB97X-D <= 

    wB97X-D Hyb-GGA Exchange-Correlation Functional

    J.-D. Chai and M. Head-Gordon, Phys. Chem. Chem. Phys. 10, 6615 (2008)

    Deriv               =              1
    GGA                 =           TRUE
    Meta                =          FALSE

    Exchange Hybrid     =           TRUE
    MP2 Hybrid          =          FALSE

   => Exchange-Correlation Functionals <=

    1.0000   wB97D range-separated functional

   => Exact (HF) Exchange <=

    0.7780            HF,LR [omega = 0.2000]
    0.2220               HF 

   => Molecular Quadrature <=

    Radial Scheme          =       TREUTLER
    Pruning Scheme         =           FLAT
    Nuclear Scheme         =       TREUTLER

    BS radius alpha        =              1
    Pruning alpha          =              1
    Radial Points          =             75
    Spherical Points       =            302
    Total Points           =         520857
    Total Blocks           =           3861
    Max Points             =            256
    Max Functions          =            284

   => WB97X-D: Empirical Dispersion <=

    Chai and Head-Gordon Dispersion Correction
    Chai, J.-D.; Head-Gordon, M. (2010), J. Chem. Phys., 132: 6615-6620

        s6 =       1.000000

   => Loading Basis Set <=

    Name: (6-31+G* AUX)
    Role: JKFIT
    Keyword: DF_BASIS_SCF
    atoms 1             entry N          line   252 file /fsx/users/francis/anaconda3/envs/poltype-dev/share/psi4/basis/heavy-aug-cc-pvdz-jkfit.gbs 
    atoms 2-3, 6-12, 14 entry C          line   194 file /fsx/users/francis/anaconda3/envs/poltype-dev/share/psi4/basis/heavy-aug-cc-pvdz-jkfit.gbs 
    atoms 4-5           entry F          line   368 file /fsx/users/francis/anaconda3/envs/poltype-dev/share/psi4/basis/heavy-aug-cc-pvdz-jkfit.gbs 
    atoms 13            entry S          line   730 file /fsx/users/francis/anaconda3/envs/poltype-dev/share/psi4/basis/heavy-aug-cc-pvdz-jkfit.gbs 
    atoms 15-16         entry O          line   310 file /fsx/users/francis/anaconda3/envs/poltype-dev/share/psi4/basis/heavy-aug-cc-pvdz-jkfit.gbs 
    atoms 17-23         entry H          line   116 file /fsx/users/francis/anaconda3/envs/poltype-dev/share/psi4/basis/heavy-aug-cc-pvdz-jkfit.gbs 

   => Loading Basis Set <=

    Name: 6-31+G*
    Role: ORBITAL
    Keyword: BASIS
    atoms 1             entry N          line   138 file /fsx/users/francis/anaconda3/envs/poltype-dev/share/psi4/basis/6-31pgs.gbs 
    atoms 2-3, 6-12, 14 entry C          line   119 file /fsx/users/francis/anaconda3/envs/poltype-dev/share/psi4/basis/6-31pgs.gbs 
    atoms 4-5           entry F          line   176 file /fsx/users/francis/anaconda3/envs/poltype-dev/share/psi4/basis/6-31pgs.gbs 
    atoms 13            entry S          line   344 file /fsx/users/francis/anaconda3/envs/poltype-dev/share/psi4/basis/6-31pgs.gbs 
    atoms 15-16         entry O          line   157 file /fsx/users/francis/anaconda3/envs/poltype-dev/share/psi4/basis/6-31pgs.gbs 
    atoms 17-23         entry H          line    46 file /fsx/users/francis/anaconda3/envs/poltype-dev/share/psi4/basis/6-31pgs.gbs 

  Reading orbitals from file 180, no projection.

  ==> Pre-Iterations <==

   -------------------------------------------------------
    Irrep   Nso     Nmo     Nalpha   Nbeta   Ndocc  Nsocc
   -------------------------------------------------------
     A        322     322       0       0       0       0
   -------------------------------------------------------
    Total     322     322      62      62      62       0
   -------------------------------------------------------

  ==> Integral Setup <==

  ==> DiskDFJK: Density-Fitted J/K Matrices <==

    J tasked:                  Yes
    K tasked:                  Yes
    wK tasked:                 Yes
    Omega:               2.000E-01
    OpenMP threads:              8
    Integrals threads:           8
    Memory [MiB]:             8402
    Algorithm:                Core
    Integral Cache:           NONE
    Schwarz Cutoff:          1E-12
    Fitting Condition:       1E-10

   => Auxiliary Basis Set <=

  Basis Set: (6-31+G* AUX)
    Blend: HEAVY-AUG-CC-PVDZ-JKFIT
    Number of shells: 523
    Number of basis function: 1840
    Number of Cartesian functions: 1840
    Spherical Harmonics?: false
    Max angular momentum: 3

  Cached 100.0% of DFT collocation blocks in 2.970 [GiB].

  Minimum eigenvalue in the overlap matrix is 5.6607245821E-07.
  Using Symmetric Orthogonalization.

  SCF Guess: Orbitals guess was supplied from a previous computation.

  ==> Iterations <==

                           Total Energy        Delta E     RMS |[F,P]|

   @DF-RKS iter   0: -1188.26505082781455   -1.18827e+03   1.47927e-03 
   @DF-RKS iter   1: -1188.11396323005829    1.51088e-01   2.73568e-04 DIIS
   @DF-RKS iter   2: -1188.11451784272458   -5.54613e-04   3.13581e-04 DIIS
   @DF-RKS iter   3: -1188.11891550127393   -4.39766e-03   6.68058e-05 DIIS
   @DF-RKS iter   4: -1188.11908615250695   -1.70651e-04   2.36978e-05 DIIS
   @DF-RKS iter   5: -1188.11911906322143   -3.29107e-05   5.75011e-06 DIIS
   @DF-RKS iter   6: -1188.11912171600375   -2.65278e-06   1.85978e-06 DIIS
   @DF-RKS iter   7: -1188.11912208497642   -3.68973e-07   9.51811e-07 DIIS
   @DF-RKS iter   8: -1188.11912218538919   -1.00413e-07   3.83632e-07 DIIS
   @DF-RKS iter   9: -1188.11912221011039   -2.47212e-08   2.11227e-07 DIIS
   @DF-RKS iter  10: -1188.11912221609123   -5.98084e-09   8.26834e-08 DIIS
   @DF-RKS iter  11: -1188.11912221764760   -1.55637e-09   3.54822e-08 DIIS
   @DF-RKS iter  12: -1188.11912221784974   -2.02135e-10   1.64227e-08 DIIS
   @DF-RKS iter  13: -1188.11912221788862   -3.88809e-11   6.52295e-09 DIIS
  Energy and wave function converged.


  ==> Post-Iterations <==

    Orbital Energies [Eh]
    ---------------------

    Doubly Occupied:                                                      

       1A    -89.075457     2A    -24.875351     3A    -24.873248  
       4A    -19.307565     5A    -19.295055     6A    -14.544058  
       7A    -10.503271     8A    -10.455870     9A    -10.432533  
      10A    -10.408035    11A    -10.381940    12A    -10.352968  
      13A    -10.351754    14A    -10.351343    15A    -10.350971  
      16A    -10.340972    17A     -8.092834    18A     -6.043603  
      19A     -6.039461    20A     -6.032598    21A     -1.393075  
      22A     -1.331961    23A     -1.195844    24A     -1.187211  
      25A     -1.102469    26A     -1.007389    27A     -0.942880  
      28A     -0.906883    29A     -0.892556    30A     -0.868198  
      31A     -0.795597    32A     -0.771839    33A     -0.757165  
      34A     -0.743065    35A     -0.700033    36A     -0.684872  
      37A     -0.672727    38A     -0.649695    39A     -0.631061  
      40A     -0.594033    41A     -0.582606    42A     -0.571765  
      43A     -0.564926    44A     -0.563110    45A     -0.557821  
      46A     -0.554516    47A     -0.542090    48A     -0.535772  
      49A     -0.528466    50A     -0.519229    51A     -0.511634  
      52A     -0.503285    53A     -0.494036    54A     -0.480865  
      55A     -0.474193    56A     -0.445654    57A     -0.427472  
      58A     -0.398150    59A     -0.381883    60A     -0.368533  
      61A     -0.342667    62A     -0.326907  

    Virtual:                                                              

      63A     -0.048826    64A      0.011212    65A      0.038809  
      66A      0.048176    67A      0.058106    68A      0.062625  
      69A      0.065003    70A      0.074877    71A      0.076516  
      72A      0.089732    73A      0.092880    74A      0.098322  
      75A      0.105482    76A      0.109837    77A      0.113823  
      78A      0.118164    79A      0.123848    80A      0.128055  
      81A      0.135490    82A      0.139823    83A      0.143162  
      84A      0.147495    85A      0.162353    86A      0.163145  
      87A      0.166915    88A      0.172908    89A      0.177324  
      90A      0.179985    91A      0.184480    92A      0.189692  
      93A      0.197949    94A      0.199503    95A      0.205441  
      96A      0.209320    97A      0.215950    98A      0.221554  
      99A      0.223846   100A      0.230617   101A      0.238181  
     102A      0.241556   103A      0.242757   104A      0.247581  
     105A      0.249443   106A      0.252314   107A      0.254938  
     108A      0.263795   109A      0.266188   110A      0.275928  
     111A      0.281247   112A      0.285288   113A      0.291124  
     114A      0.294834   115A      0.299727   116A      0.301408  
     117A      0.308504   118A      0.311553   119A      0.317014  
     120A      0.319571   121A      0.323255   122A      0.331572  
     123A      0.336505   124A      0.344019   125A      0.358570  
     126A      0.361010   127A      0.368697   128A      0.372062  
     129A      0.381646   130A      0.388215   131A      0.391115  
     132A      0.393912   133A      0.396700   134A      0.405443  
     135A      0.409404   136A      0.416067   137A      0.422909  
     138A      0.434127   139A      0.445359   140A      0.448015  
     141A      0.460305   142A      0.470397   143A      0.478400  
     144A      0.491218   145A      0.501602   146A      0.515100  
     147A      0.528714   148A      0.535321   149A      0.546197  
     150A      0.551746   151A      0.558630   152A      0.576443  
     153A      0.603816   154A      0.606524   155A      0.612572  
     156A      0.644260   157A      0.662199   158A      0.676159  
     159A      0.693708   160A      0.712567   161A      0.723594  
     162A      0.738385   163A      0.746176   164A      0.755490  
     165A      0.768872   166A      0.778364   167A      0.792166  
     168A      0.803238   169A      0.820451   170A      0.826679  
     171A      0.835897   172A      0.865835   173A      0.870730  
     174A      0.873109   175A      0.882503   176A      0.893784  
     177A      0.914543   178A      0.916077   179A      0.931307  
     180A      0.946756   181A      0.954866   182A      0.971894  
     183A      0.982085   184A      0.999147   185A      1.000277  
     186A      1.020666   187A      1.045178   188A      1.054535  
     189A      1.067190   190A      1.074206   191A      1.079769  
     192A      1.099602   193A      1.114894   194A      1.142483  
     195A      1.164049   196A      1.167921   197A      1.197516  
     198A      1.200614   199A      1.209524   200A      1.216299  
     201A      1.228840   202A      1.242650   203A      1.267948  
     204A      1.283087   205A      1.294239   206A      1.324204  
     207A      1.326788   208A      1.335877   209A      1.346233  
     210A      1.373420   211A      1.395491   212A      1.406880  
     213A      1.414421   214A      1.423517   215A      1.438197  
     216A      1.447450   217A      1.456742   218A      1.463531  
     219A      1.477716   220A      1.487702   221A      1.502668  
     222A      1.515724   223A      1.522364   224A      1.531331  
     225A      1.558139   226A      1.605238   227A      1.625882  
     228A      1.658888   229A      1.670792   230A      1.683917  
     231A      1.710793   232A      1.747257   233A      1.756782  
     234A      1.760960   235A      1.762471   236A      1.771767  
     237A      1.774881   238A      1.788014   239A      1.795787  
     240A      1.825377   241A      1.838161   242A      1.873748  
     243A      1.887743   244A      1.895832   245A      1.911875  
     246A      1.916468   247A      1.923024   248A      1.954616  
     249A      1.968288   250A      1.973332   251A      1.981891  
     252A      2.019952   253A      2.043521   254A      2.050356  
     255A      2.063149   256A      2.072998   257A      2.088221  
     258A      2.115172   259A      2.118187   260A      2.138963  
     261A      2.172303   262A      2.176774   263A      2.184539  
     264A      2.214482   265A      2.222742   266A      2.230535  
     267A      2.255066   268A      2.265154   269A      2.275487  
     270A      2.292288   271A      2.320664   272A      2.326827  
     273A      2.334166   274A      2.346170   275A      2.364885  
     276A      2.381801   277A      2.394345   278A      2.431508  
     279A      2.478798   280A      2.488491   281A      2.529857  
     282A      2.555628   283A      2.601147   284A      2.654770  
     285A      2.687245   286A      2.691878   287A      2.731398  
     288A      2.745388   289A      2.762951   290A      2.784250  
     291A      2.791837   292A      2.839771   293A      2.841173  
     294A      2.878695   295A      2.926868   296A      2.968535  
     297A      2.990075   298A      3.051621   299A      3.144077  
     300A      3.186218   301A      3.229988   302A      3.258931  
     303A      3.368770   304A      3.421357   305A      3.511597  
     306A      3.521299   307A      4.043633   308A      4.300698  
     309A      4.307047   310A      4.347518   311A      4.371252  
     312A      4.387872   313A      4.424184   314A      4.485168  
     315A      4.492491   316A      4.532386   317A      4.600899  
     318A      4.817682   319A      4.880620   320A      5.150570  
     321A      5.729339   322A      7.232720  

    Final Occupation by Irrep:
              A 
    DOCC [    62 ]

  @DF-RKS Final Energy: -1188.11912221788862

   => Energetics <=

    Nuclear Repulsion Energy =           1192.1302160352322517
    One-Electron Energy =               -3998.1316649911605055
    Two-Electron Energy =                1707.4557738357914332
    DFT Exchange-Correlation Energy =     -89.5596960731779319
    Empirical Dispersion Energy =          -0.0137510245741747
    VV10 Nonlocal Energy =                  0.0000000000000000
    Total Energy =                      -1188.1191222178888438

Computation Completed


Properties will be evaluated at   0.000000,   0.000000,   0.000000 [a0]

Properties computed using the SCF density matrix

  Nuclear Dipole Moment: [e a0]
     X:    23.5187      Y:    -2.3583      Z:    -4.4210

  Electronic Dipole Moment: [e a0]
     X:   -20.8326      Y:     1.8347      Z:     4.0057

  Dipole Moment: [e a0]
     X:     2.6861      Y:    -0.5236      Z:    -0.4153     Total:     2.7680

  Dipole Moment: [D]
     X:     6.8274      Y:    -1.3309      Z:    -1.0557     Total:     7.0356


*** tstop() called on cpu-spot-dy-c5n2xlarge-1 at Mon Jun 21 23:27:47 2021
Module time:
	user time   =     483.88 seconds =       8.06 minutes
	system time =       6.87 seconds =       0.11 minutes
	total time  =         64 seconds =       1.07 minutes
Total time:
	user time   =    1205.25 seconds =      20.09 minutes
	system time =      20.97 seconds =       0.35 minutes
	total time  =        165 seconds =       2.75 minutes

*** tstart() called on cpu-spot-dy-c5n2xlarge-1
*** at Mon Jun 21 23:27:47 2021


         ------------------------------------------------------------
                                   SCF GRAD                          
                          Rob Parrish, Justin Turney,                
                       Andy Simmonett, and Alex Sokolov              
         ------------------------------------------------------------

  ==> Geometry <==

    Molecular point group: c1
    Full point group: C1

    Geometry (in Angstrom), charge = 0, multiplicity = 1:

       Center              X                  Y                   Z               Mass       
    ------------   -----------------  -----------------  -----------------  -----------------
         N           -0.568374755925    -1.502297352730     0.457248826484    14.003074004430
         C           -1.837170493496    -1.393947458482     0.960022432550    12.000000000000
         C           -2.451641556131     0.021370270143     0.936782503956    12.000000000000
         F           -3.654585387210    -0.065200030147     0.316776655097    18.998403162730
         F           -2.668406516660     0.386230134490     2.227613430515    18.998403162730
         C           -1.638023548409     1.149985218315     0.258672580061    12.000000000000
         C           -0.288592576217     0.815377542659    -0.218112167522    12.000000000000
         C            0.512881208466     1.800022388024    -0.800104467003    12.000000000000
         C            1.793882900174     1.512297353826    -1.236388986347    12.000000000000
         C            2.290913380694     0.210662862288    -1.124731961476    12.000000000000
         C            1.496607670717    -0.783394524261    -0.546596190717    12.000000000000
         C            0.215663720942    -0.487780594185    -0.097407199555    12.000000000000
         S            3.935889072461    -0.158836427386    -1.672346392487    31.972071174400
         C            4.643838852480    -0.869292142726    -0.155386457974    12.000000000000
         O           -2.447142040927    -2.339237646142     1.407020621448    15.994914619570
         O           -2.141482435646     2.246824504392     0.164528131352    15.994914619570
         H            2.410597838682     2.296954715950    -1.662355681190     1.007825032230
         H            0.111485958819     2.804232628179    -0.884130342961     1.007825032230
         H           -0.194392710812    -2.443391960137     0.494172911955     1.007825032230
         H            1.869451982131    -1.801029776346    -0.470133056809     1.007825032230
         H            4.707854065534    -0.120837067203     0.637790447929     1.007825032230
         H            4.080366102398    -1.736307762499     0.196381050776     1.007825032230
         H            5.650371149058    -1.191885690790    -0.426823686661     1.007825032230

  Nuclear repulsion = 1192.130216035232252

  ==> Basis Set <==

  Basis Set: 6-31+G*
    Blend: 6-31+G*
    Number of shells: 144
    Number of basis function: 322
    Number of Cartesian functions: 322
    Spherical Harmonics?: false
    Max angular momentum: 2

  ==> DFJKGrad: Density-Fitted SCF Gradients <==

    Gradient:                    1
    J tasked:                  Yes
    K tasked:                  Yes
    wK tasked:                 Yes
    Omega:               2.000E-01
    OpenMP threads:              8
    Integrals threads:           8
    Memory [MiB]:            11444
    Schwarz Cutoff:          0E+00
    Fitting Condition:       1E-10

   => Auxiliary Basis Set <=

  Basis Set: (6-31+G* AUX)
    Blend: HEAVY-AUG-CC-PVDZ-JKFIT
    Number of shells: 523
    Number of basis function: 1840
    Number of Cartesian functions: 1840
    Spherical Harmonics?: false
    Max angular momentum: 3

  ==> DFT Potential <==

   => Composite Functional: WB97X-D <= 

    wB97X-D Hyb-GGA Exchange-Correlation Functional

    J.-D. Chai and M. Head-Gordon, Phys. Chem. Chem. Phys. 10, 6615 (2008)

    Deriv               =              1
    GGA                 =           TRUE
    Meta                =          FALSE

    Exchange Hybrid     =           TRUE
    MP2 Hybrid          =          FALSE

   => Exchange-Correlation Functionals <=

    1.0000   wB97D range-separated functional

   => Exact (HF) Exchange <=

    0.7780            HF,LR [omega = 0.2000]
    0.2220               HF 

   => Molecular Quadrature <=

    Radial Scheme          =       TREUTLER
    Pruning Scheme         =           FLAT
    Nuclear Scheme         =       TREUTLER

    BS radius alpha        =              1
    Pruning alpha          =              1
    Radial Points          =             75
    Spherical Points       =            302
    Total Points           =         520857
    Total Blocks           =           3861
    Max Points             =            256
    Max Functions          =            284


  -Total Gradient:
     Atom            X                  Y                   Z
    ------   -----------------  -----------------  -----------------
       1        0.000196575979     0.003048004891    -0.001304090710
       2        0.000372742255     0.002550548871    -0.000408295449
       3        0.005716867593     0.000365340167    -0.000366916595
       4       -0.002701246151    -0.000051769063    -0.001032266400
       5       -0.000866844062     0.000032583664     0.000324701604
       6       -0.000813843549    -0.003244111195     0.001519675702
       7        0.000186944740    -0.000616195660     0.000140667676
       8        0.000702642051    -0.000972564647    -0.000351504814
       9       -0.000129563712    -0.003213131195     0.004132091569
      10        0.002166446876     0.002323268095    -0.008512716625
      11       -0.002437767745     0.000745317005     0.003329703182
      12        0.003418996321    -0.000179820225    -0.001235535916
      13       -0.001452827103    -0.000119684879     0.001969929032
      14       -0.000544447603    -0.000081985718     0.000396663159
      15       -0.000765864431    -0.002135369136     0.000689362941
      16        0.000164526172     0.000993408858    -0.000320030230
      17       -0.000686792266     0.000611121902    -0.000042528319
      18        0.000402248208    -0.000567339877    -0.000234044759
      19       -0.000927723374    -0.000523929020     0.000309147501
      20        0.000219038770     0.000152927154     0.000209227943
      21        0.000443558524    -0.000175263289     0.000378542138
      22       -0.000554337482     0.000176834750     0.000616185072
      23       -0.001203094167     0.000671628699    -0.000877341551


*** tstop() called on cpu-spot-dy-c5n2xlarge-1 at Mon Jun 21 23:28:11 2021
Module time:
	user time   =     147.81 seconds =       2.46 minutes
[...]
	 B(10,11,12)      =         2.097661	     120.187123
	 B(10,11,20)      =         2.098159	     120.215654
	 B(10,13,14)      =         1.769506	     101.385250
	 B(11,10,13)      =         2.115928	     121.233751
	 B(12,1,19)       =         2.069568	     118.577489
	 B(12,11,20)      =         2.086934	     119.572531
	 B(13,14,21)      =         1.935000	     110.867314
	 B(13,14,22)      =         1.957730	     112.169643
	 B(13,14,23)      =         1.849459	     105.966221
	 B(21,14,22)      =         1.926517	     110.381299
	 B(21,14,23)      =         1.900230	     108.875137
	 B(22,14,23)      =         1.892073	     108.407787
	 D(1,2,3,4)       =         2.749338	     157.525447
	 D(1,2,3,5)       =        -1.495707	     -85.697726
	 D(1,2,3,6)       =         0.534193	      30.606985
	 D(1,12,7,6)      =         0.022215	       1.272848
	 D(1,12,7,8)      =        -3.099124	    -177.566705
	 D(1,12,11,10)    =         3.104455	     177.872158
	 D(1,12,11,20)    =        -0.005663	      -0.324459
	 D(2,1,12,7)      =        -0.078762	      -4.512706
	 D(2,1,12,11)     =         3.103780	     177.833473
	 D(2,3,6,7)       =        -0.584302	     -33.478023
	 D(2,3,6,16)      =         2.609482	     149.512329
	 D(3,2,1,12)      =        -0.211334	     -12.108549
	 D(3,2,1,19)      =         3.047212	     174.592409
	 D(3,6,7,8)       =        -2.851548	    -163.381658
	 D(3,6,7,12)      =         0.310508	      17.790826
	 D(4,3,2,15)      =        -0.450314	     -25.801077
	 D(4,3,6,7)       =        -2.788766	    -159.784508
	 D(4,3,6,16)      =         0.405018	      23.205844
	 D(5,3,2,15)      =         1.587826	      90.975750
	 D(5,3,6,7)       =         1.446905	      82.901565
	 D(5,3,6,16)      =        -1.642496	     -94.108082
	 D(6,3,2,15)      =        -2.665459	    -152.719538
	 D(6,7,8,9)       =         3.139874	     179.901523
	 D(6,7,8,18)      =         0.024003	       1.375285
	 D(6,7,12,11)     =         3.122624	     178.913192
	 D(7,8,9,10)      =         0.037660	       2.157780
	 D(7,8,9,17)      =        -3.101147	    -177.682622
	 D(7,12,1,19)     =         2.941964	     168.562092
	 D(7,12,11,10)    =         0.003397	       0.194626
	 D(7,12,11,20)    =        -3.106721	    -178.001991
	 D(8,7,6,16)      =         0.234881	      13.457692
	 D(8,7,12,11)     =         0.001285	       0.073638
	 D(8,9,10,11)     =        -0.032658	      -1.871171
	 D(8,9,10,13)     =         3.139352	     179.871632
	 D(9,8,7,12)      =        -0.022043	      -1.262972
	 D(9,10,11,12)    =         0.012252	       0.701999
	 D(9,10,11,20)    =         3.122166	     178.886937
	*D(9,10,13,14)    =         2.164738	     124.030341
	 D(10,9,8,18)     =        -3.130373	    -179.357183
	*D(10,13,14,21)   =        -1.143921	     -65.541826
	 D(10,13,14,22)   =         1.018609	      58.361992
	 D(10,13,14,23)   =         3.080113	     176.477467
	 D(11,10,9,17)    =         3.106177	     177.970808
	*D(11,10,13,14)   =        -0.946066	     -54.205609
	 D(11,12,1,19)    =        -0.158681	      -9.091729
	 D(12,1,2,15)     =         2.989014	     171.257907
	 D(12,7,6,16)     =        -2.886248	    -165.369824
	 D(12,7,8,18)     =        -3.137914	    -179.789210
	 D(12,11,10,13)   =         3.122635	     178.913826
	 D(13,10,9,17)    =        -0.004998	      -0.286390
	 D(13,10,11,20)   =        -0.050636	      -2.901236
	 D(15,2,1,19)     =        -0.035625	      -2.041135
	 D(17,9,8,18)     =         0.014005	       0.802415

	Current energy   :     -1188.1205918469

	Energy change for the previous step:
		Projected    :        -0.0001993280
		Actual       :        -0.0000766015

	Performing BFGS update.
	Previous computed or guess Hessian on step 1.
	Steps to be used in Hessian update: 10 9
	Taking RFO optimization step.
	Going to follow RFO solution 1.
	Using RFO vector 1.
	Norm of target step-size    0.01692
	Projected energy change by RFO approximation:        -0.0000123042

	Back-transformation to cartesian coordinates...
	Successfully converged to displaced geometry.

	Back-transformation to cartesian coordinates to adjust frozen coordinates...
	Successfully converged to displaced geometry.

	--- Internal Coordinate Step in ANG or DEG, aJ/ANG or AJ/DEG ---
	 ---------------------------------------------------------------------------
	   Coordinate                Previous        Force       Change         New 
	   ----------                --------       ------       ------       ------
	    1 R(1,2)          =      1.371089    -0.001958    -0.000271     1.370818
	    2 R(1,12)         =      1.400919    -0.001939    -0.000239     1.400680
	    3 R(1,19)         =      1.012827    -0.000458    -0.000085     1.012742
	    4 R(2,3)          =      1.544510     0.002891     0.000654     1.545163
	    5 R(2,15)         =      1.208019     0.001887     0.000138     1.208158
	    6 R(3,4)          =      1.332965     0.004523     0.000636     1.333601
	    7 R(3,5)          =      1.377907    -0.004997    -0.001131     1.376777
	    8 R(3,6)          =      1.548467    -0.000186     0.000034     1.548501
	    9 R(6,7)          =      1.472449    -0.000896    -0.000232     1.472217
	   10 R(6,16)         =      1.208561    -0.004263    -0.000307     1.208254
	   11 R(7,8)          =      1.398220    -0.003332    -0.000546     1.397674
	   12 R(7,12)         =      1.404828    -0.001852    -0.000175     1.404653
	   13 R(8,9)          =      1.384741     0.001080     0.000262     1.385003
	   14 R(8,18)         =      1.085782    -0.000567    -0.000100     1.085682
	   15 R(9,10)         =      1.402470    -0.003509    -0.000551     1.401919
	   16 R(9,17)         =      1.084806    -0.000481    -0.000097     1.084709
	   17 R(10,11)        =      1.394405     0.000780     0.000197     1.394602
	   18 R(10,13)        =      1.781402     0.000020    -0.000036     1.781366
	   19 R(11,12)        =      1.394455    -0.003395    -0.000521     1.393935
	   20 R(11,20)        =      1.086721    -0.000426    -0.000066     1.086654
	   21 R(13,14)        =      1.818438     0.000611     0.000123     1.818561
	   22 R(14,21)        =      1.092175    -0.000222    -0.000044     1.092131
	   23 R(14,22)        =      1.091917    -0.000465    -0.000098     1.091820
	   24 R(14,23)        =      1.093205    -0.000895    -0.000158     1.093047
	   25 B(1,2,3)        =    114.007389    -0.000002     0.009953   114.017341
	   26 B(1,2,15)       =    123.478415    -0.000004    -0.015648   123.462767
	   27 B(1,12,7)       =    120.841378    -0.000009    -0.038367   120.803011
	   28 B(1,12,11)      =    119.269376     0.000002     0.021010   119.290386
	   29 B(2,1,12)       =    126.246715     0.000015     0.037729   126.284444
	   30 B(2,1,19)       =    114.849115    -0.000003    -0.016370   114.832745
	   31 B(2,3,4)        =    109.960860     0.000007    -0.035953   109.924907
	   32 B(2,3,5)        =    105.664049     0.000008     0.068472   105.732521
	   33 B(2,3,6)        =    115.650202    -0.000021    -0.064179   115.586023
	   34 B(3,2,15)       =    122.424904     0.000006    -0.000895   122.424010
	   35 B(3,6,7)        =    114.471797     0.000005     0.052361   114.524158
	   36 B(3,6,16)       =    120.262049     0.000000    -0.030219   120.231830
	   37 B(4,3,5)        =    108.394316     0.000012     0.108712   108.503028
	   38 B(4,3,6)        =    111.172672    -0.000005    -0.088503   111.084169
	   39 B(5,3,6)        =    105.531240     0.000001     0.037870   105.569109
	   40 B(6,7,8)        =    120.452641     0.000001     0.003274   120.455915
	   41 B(6,7,12)       =    120.110933     0.000007     0.024715   120.135648
	   42 B(7,6,16)       =    125.191070    -0.000006    -0.026796   125.164274
	   43 B(7,8,9)        =    120.818515     0.000008     0.026465   120.844980
	   44 B(7,8,18)       =    118.191568    -0.000003    -0.000156   118.191413
	   45 B(7,12,11)      =    119.847763     0.000006     0.016617   119.864380
	   46 B(8,7,12)       =    119.426155    -0.000007    -0.027013   119.399142
	   47 B(8,9,10)       =    119.626439    -0.000003    -0.005834   119.620605
	   48 B(8,9,17)       =    120.675704    -0.000003    -0.027504   120.648200
	   49 B(9,8,18)       =    120.973184    -0.000005    -0.026907   120.946277
	   50 B(9,10,11)      =    120.062427    -0.000008    -0.021492   120.040935
	   51 B(9,10,13)      =    118.680284     0.000015     0.045751   118.726035
	   52 B(10,9,17)      =    119.697666     0.000007     0.033054   119.730719
	   53 B(10,11,12)     =    120.187123     0.000004     0.013218   120.200341
	   54 B(10,11,20)     =    120.215654    -0.000009    -0.043251   120.172403
	   55 B(10,13,14)     =    101.385250    -0.000006    -0.021885   101.363365
	   56 B(11,10,13)     =    121.233751    -0.000007    -0.024249   121.209501
	   57 B(12,1,19)      =    118.577489    -0.000012    -0.044754   118.532735
	   58 B(12,11,20)     =    119.572531     0.000005     0.031430   119.603961
	   59 B(13,14,21)     =    110.867314     0.000007     0.028828   110.896143
	   60 B(13,14,22)     =    112.169643    -0.000005    -0.029944   112.139699
	   61 B(13,14,23)     =    105.966221     0.000003     0.013918   105.980139
	   62 B(21,14,22)     =    110.381299    -0.000002    -0.008833   110.372466
	   63 B(21,14,23)     =    108.875137    -0.000003    -0.003949   108.871188
	   64 B(22,14,23)     =    108.407787    -0.000000     0.000845   108.408632
	   65 D(1,2,3,4)      =    157.525447    -0.000003    -0.203634   157.321813
	   66 D(1,2,3,5)      =    -85.697726     0.000002    -0.056250   -85.753976
	   67 D(1,2,3,6)      =     30.606985     0.000001     0.001446    30.608431
	   68 D(1,12,7,6)     =      1.272848     0.000001     0.066866     1.339714
	   69 D(1,12,7,8)     =   -177.566705     0.000001     0.010310  -177.556395
	   70 D(1,12,11,10)   =    177.872158    -0.000000     0.023372   177.895530
	   71 D(1,12,11,20)   =     -0.324459    -0.000001    -0.027590    -0.352049
	   72 D(2,1,12,7)     =     -4.512706    -0.000000     0.044080    -4.468625
	   73 D(2,1,12,11)    =    177.833473     0.000000     0.064472   177.897946
	   74 D(2,3,6,7)      =    -33.478023    -0.000001     0.086061   -33.391962
	   75 D(2,3,6,16)     =    149.512329     0.000000     0.177993   149.690322
	   76 D(3,2,1,12)     =    -12.108549    -0.000002    -0.086109   -12.194659
	   77 D(3,2,1,19)     =    174.592409    -0.000000     0.152275   174.744683
	   78 D(3,6,7,8)      =   -163.381658     0.000001    -0.046791  -163.428450
	   79 D(3,6,7,12)     =     17.790826     0.000001    -0.103600    17.687226
	   80 D(4,3,2,15)     =    -25.801077    -0.000004    -0.324598   -26.125675
	   81 D(4,3,6,7)      =   -159.784508     0.000001     0.266792  -159.517716
	   82 D(4,3,6,16)     =     23.205844     0.000003     0.358723    23.564568
	   83 D(5,3,2,15)     =     90.975750     0.000001    -0.177214    90.798536
	   84 D(5,3,6,7)      =     82.901565    -0.000001     0.161072    83.062638
	   85 D(5,3,6,16)     =    -94.108082     0.000000     0.253004   -93.855078
	   86 D(6,3,2,15)     =   -152.719538     0.000000    -0.119518  -152.839056
	   87 D(6,7,8,9)      =    179.901523    -0.000000    -0.040503   179.861020
	   88 D(6,7,8,18)     =      1.375285     0.000000    -0.013995     1.361290
	   89 D(6,7,12,11)    =    178.913192     0.000000     0.046449   178.959641
	   90 D(7,8,9,10)     =      2.157780    -0.000000    -0.056584     2.101197
	   91 D(7,8,9,17)     =   -177.682622     0.000000     0.035328  -177.647294
	   92 D(7,12,1,19)    =    168.562092    -0.000002    -0.200251   168.361841
	   93 D(7,12,11,10)   =      0.194626     0.000000     0.044884     0.239510
	   94 D(7,12,11,20)   =   -178.001991     0.000000    -0.006077  -178.008068
	   95 D(8,7,6,16)     =     13.457692     0.000000    -0.143897    13.313794
	   96 D(8,7,12,11)    =      0.073638     0.000000    -0.010106     0.063532
	   97 D(8,9,10,11)    =     -1.871171     0.000001     0.091921    -1.779250
	   98 D(8,9,10,13)    =    179.871632     0.000001     0.091990   179.963622
	   99 D(9,8,7,12)     =     -1.262972    -0.000000     0.016490    -1.246482
	  100 D(9,10,11,12)   =      0.701999    -0.000001    -0.085492     0.616507
	  101 D(9,10,11,20)   =    178.886937    -0.000000    -0.032876   178.854061
	  102 *D(9,10,13,14)  =    124.030341     0.000000    -0.000000   124.030341
	  103 D(10,9,8,18)    =   -179.357183    -0.000000    -0.083400  -179.440583
	  104 *D(10,13,14,21) =    -65.541826    -0.000000     0.000000   -65.541826
	  105 D(10,13,14,22)  =     58.361992    -0.000000    -0.011952    58.350039
	  106 D(10,13,14,23)  =    176.477467    -0.000000    -0.018609   176.458858
	  107 D(11,10,9,17)   =    177.970808     0.000000     0.000765   177.971573
	  108 *D(11,10,13,14) =    -54.205609     0.000000     0.000000   -54.205609
	  109 D(11,12,1,19)   =     -9.091729    -0.000001    -0.179859    -9.271588
	  110 D(12,1,2,15)    =    171.257907    -0.000000     0.035714   171.293621
	  111 D(12,7,6,16)    =   -165.369824    -0.000000    -0.200706  -165.570530
	  112 D(12,7,8,18)    =   -179.789210     0.000000     0.042997  -179.746213
	  113 D(12,11,10,13)  =    178.913826    -0.000000    -0.084322   178.829505
	  114 D(13,10,9,17)   =     -0.286390     0.000000     0.000834    -0.285556
	  115 D(13,10,11,20)  =     -2.901236    -0.000000    -0.031706    -2.932941
	  116 D(15,2,1,19)    =     -2.041135     0.000001     0.274098    -1.767037
	  117 D(17,9,8,18)    =      0.802415     0.000000     0.008511     0.810926
	 ---------------------------------------------------------------------------
	Successfully symmetrized geometry.

  ==> Convergence Check <==

  Measures of convergence in internal coordinates in au.
  Criteria marked as inactive (o), active & met (*), and active & unmet ( ).
  ---------------------------------------------------------------------------------------------
   Step     Total Energy     Delta E     MAX Force     RMS Force      MAX Disp      RMS Disp   
  ---------------------------------------------------------------------------------------------
    Convergence Criteria             o    2.50e-03 *    1.70e-03 *    1.00e-02 *    6.70e-03 *
  ---------------------------------------------------------------------------------------------
     11   -1188.12059185   -7.66e-05 o    6.06e-04 *    1.44e-04 *    6.26e-03 *    1.56e-03 *  ~
  ---------------------------------------------------------------------------------------------


  **** Optimization is complete! (in 11 steps) ****

  ==> Optimization Summary <==

  Measures of convergence in internal coordinates in au.
  --------------------------------------------------------------------------------------------------------------- ~
   Step         Total Energy             Delta E       MAX Force       RMS Force        MAX Disp        RMS Disp  ~
  --------------------------------------------------------------------------------------------------------------- ~
      1   -1188.112115187702  -1188.112115187702      0.02978396      0.00686503      0.08178252      0.02035441  ~
      2   -1188.119122217889     -0.007007030187      0.00464158      0.00108925      0.03013976      0.00866584  ~
      3   -1188.119370245105     -0.000248027217      0.00110288      0.00031608      0.08615708      0.01896166  ~
      4   -1188.119053283695      0.000316961410      0.00406296      0.00076773      0.05767252      0.01419013  ~
      5   -1188.119444675111     -0.000391391416      0.00340143      0.00038973      0.09623262      0.02617992  ~
      6   -1188.119525020521     -0.000080345410      0.00331593      0.00053153      0.25017963      0.06938801  ~
      7   -1188.119911220690     -0.000386200168      0.00374218      0.00085791      0.19263422      0.05424393  ~
      8   -1188.120048654255     -0.000137433566      0.00703904      0.00120926      0.12478573      0.03571492  ~
      9   -1188.120123667811     -0.000075013556      0.00854475      0.00128390      0.08887813      0.02272095  ~
     10   -1188.120515245390     -0.000391577579      0.00351771      0.00061930      0.04994242      0.01529596  ~
     11   -1188.120591846933     -0.000076601543      0.00060649      0.00014411      0.00626091      0.00156423  ~
  --------------------------------------------------------------------------------------------------------------- ~

	Writing optimization data to binary file.
	Final energy is  -1188.1205918469332
	Final (previous) structure:
	Cartesian Geometry (in Angstrom)
	    N    -0.6239171970  -1.5621773567   0.3040609343
	    C    -1.9471346937  -1.4772805037   0.6530217271
	    C    -2.4638048063  -0.0303331549   0.8108373393
	    F    -3.7883492747  -0.0015574549   0.6640355829
	    F    -2.1617743541   0.3334692608   2.1050762872
	    C    -1.7783600466   1.0279493877  -0.0880257921
	    C    -0.3526875808   0.7721216203  -0.3528200778
	    C     0.4709593733   1.7903255995  -0.8426009544
	    C     1.8131452043   1.5586683932  -1.0923612001
	    C     2.3437814947   0.2756137733  -0.8945776223
	    C     1.5312071909  -0.7495433077  -0.4117309535
	    C     0.1855506059  -0.5075360069  -0.1376038503
	    S     4.0728502611   0.0049718971  -1.2269434741
	    C     4.6453276150  -0.6575943359   0.3667920499
	    O    -2.6392114607  -2.4407145308   0.8813521276
	    O    -2.3942990625   1.9963235874  -0.4668263177
	    H     2.4583286327   2.3598634257  -1.4367878749
	    H     0.0350214320   2.7724984499  -0.9982179229
	    H    -0.2493726679  -2.5029196419   0.2808683492
	    H     1.9351532708  -1.7490413125  -0.2746440573
	    H     4.5668340167   0.0969079024   1.1525467199
	    H     4.1068622559  -1.5630818638   0.6539001252
	    H     5.6989117019  -0.9126749550   0.2254003626
	Saving final (previous) structure.
			--------------------------
			 OPTKING Finished Execution 
			--------------------------

    Final optimized geometry and variables:
    Molecular point group: c1
    Full point group: C1

    Geometry (in Angstrom), charge = 0, multiplicity = 1:

    N           -0.623917199458    -1.562177362817     0.304060935516
    C           -1.947134701326    -1.477280509483     0.653021729703
    C           -2.463804816018    -0.030333155030     0.810837342521
    F           -3.788349289547    -0.001557454864     0.664035585506
    F           -2.161774362575     0.333469262094     2.105076295470
    C           -1.778360053580     1.027949391740    -0.088025792471
    C           -0.352687582162     0.772121623326    -0.352820079199
    C            0.470959375110     1.790325606531    -0.842600957684
    C            1.813145211406     1.558668399374    -1.092361204429
    C            2.343781503881     0.275613774347    -0.894577625792
    C            1.531207196904    -0.749543310620    -0.411730955140
    C            0.185550606629    -0.507536008936    -0.137603850881
    S            4.072850277105     0.004971897095    -1.226943478936
    C            4.645327633300    -0.657594338464     0.366792051381
    O           -2.639211471107    -2.440714540400     0.881352131062
    O           -2.394299071947     1.996323595282    -0.466826319507
    H            2.458328642403     2.359863434981    -1.436787880515
    H            0.035021432159     2.772498460825    -0.998217926824
    H           -0.249372668870    -2.502919651689     0.280868350281
    H            1.935153278456    -1.749041319350    -0.274644058425
    H            4.566834034668     0.096907902767     1.152546724449
    H            4.106862272079    -1.563081869993     0.653900127816
    H            5.698911724318    -0.912674958620     0.225400363495

	Removing binary optimization data file.
	Cleaning optimization helper files.

    Psi4 stopped on: Monday, 21 June 2021 11:40PM
    Psi4 wall time for execution: 0:15:36.81

*** Psi4 exiting successfully. Buy a developer a beer!
