
    -----------------------------------------------------------------------
          Psi4: An Open-Source Ab Initio Electronic Structure Package
                               Psi4 1.3.2 release

                         Git: Rev {HEAD} ecbda83 


    R. M. Parrish, L. A. Burns, D. G. A. Smith, A. C. Simmonett,
    A. E. DePrince III, E. G. Hohenstein, U. Bozkaya, A. Yu. Sokolov,
    R. Di Remigio, R. M. Richard, J. F. Gonthier, A. M. James,
    H. R. McAlexander, A. Kumar, M. Saitow, X. Wang, B. P. Pritchard,
    P. Verma, H. F. Schaefer III, K. Patkowski, R. A. King, E. F. Valeev,
    F. A. Evangelista, J. M. Turney, T. D. Crawford, and C. D. Sherrill,
    J. Chem. Theory Comput. 13(7) pp 3185--3197 (2017).
    (doi: 10.1021/acs.jctc.7b00174)


                         Additional Contributions by
    P. Kraus, H. Kruse, M. H. Lechner, M. C. Schieber, R. A. Shaw,
    A. Alenaizan, R. Galvelis, Z. L. Glick, S. Lehtola, and J. P. Misiewicz

    -----------------------------------------------------------------------


    Psi4 started on: Tuesday, 22 June 2021 07:15AM

    Process ID: 31752
    Host:       cpu-spot-dy-c5n2xlarge-1
    PSIDATADIR: /fsx/users/francis/anaconda3/envs/poltype-dev/share/psi4
    Memory:     500.0 MiB
    Threads:    1
    
  ==> Input File <==

--------------------------------------------------------------------------
molecule { 
0 1
 N   -0.856828   -1.548236    0.184466
 C   -2.161217   -1.306487    0.525026
 C   -2.573331    0.182985    0.603838
 F   -3.685064    0.342262   -0.147320
 F   -2.892701    0.436544    1.900036
 C   -1.529388    1.247995    0.171809
 C   -0.177201    0.768602   -0.150677
 C    0.829477    1.686264   -0.479041
 C    2.107021    1.258951   -0.788270
 C    2.401250   -0.113560   -0.769007
 C    1.415224   -1.034739   -0.429422
 C    0.119606   -0.601000   -0.135017
 S    4.044997   -0.707460   -1.126901
 C    4.955632    0.027951    0.267297
 O   -2.951555   -2.188061    0.768720
 O   -1.871436    2.407785    0.138999
 H    2.873811    1.975488   -1.063901
 H    0.572405    2.740838   -0.491166
 H   -0.604525   -2.528935    0.156859
 H    1.658406   -2.093003   -0.393707
 H    4.965165    1.118787    0.212745
 H    4.532008   -0.296233    1.220389
 H    5.983145   -0.336543    0.190219
}
memory 16GB
set_num_threads(8)
psi4_io.set_default_path("/scratch/Psi4-ligand")
set freeze_core True
E, wfn = energy('wb97x-d/6-311++g**',return_wfn=True)
oeprop(wfn,"WIBERG_LOWDIN_INDICES")
clean()
--------------------------------------------------------------------------

  Memory set to  14.901 GiB by Python driver.
  Threads set to 8 by Python driver.

*** tstart() called on cpu-spot-dy-c5n2xlarge-1
*** at Tue Jun 22 07:15:22 2021

   => Loading Basis Set <=

    Name: 6-311++G**
    Role: ORBITAL
    Keyword: BASIS
    atoms 1             entry N          line   140 file /fsx/users/francis/anaconda3/envs/poltype-dev/share/psi4/basis/6-311ppgss.gbs 
    atoms 2-3, 6-12, 14 entry C          line   119 file /fsx/users/francis/anaconda3/envs/poltype-dev/share/psi4/basis/6-311ppgss.gbs 
    atoms 4-5           entry F          line   182 file /fsx/users/francis/anaconda3/envs/poltype-dev/share/psi4/basis/6-311ppgss.gbs 
    atoms 13            entry S          line   419 file /fsx/users/francis/anaconda3/envs/poltype-dev/share/psi4/basis/6-311ppgss.gbs 
    atoms 15-16         entry O          line   161 file /fsx/users/francis/anaconda3/envs/poltype-dev/share/psi4/basis/6-311ppgss.gbs 
    atoms 17-23         entry H          line    42 file /fsx/users/francis/anaconda3/envs/poltype-dev/share/psi4/basis/6-311ppgss.gbs 


         ---------------------------------------------------------
                                   SCF
               by Justin Turney, Rob Parrish, Andy Simmonett
                          and Daniel G. A. Smith
                              RKS Reference
                        8 Threads,  15258 MiB Core
         ---------------------------------------------------------

  ==> Geometry <==

    Molecular point group: c1
    Full point group: C1

    Geometry (in Angstrom), charge = 0, multiplicity = 1:

       Center              X                  Y                   Z               Mass       
    ------------   -----------------  -----------------  -----------------  -----------------
         N           -0.856827933531    -1.548235987149     0.184466098063    14.003074004430
         C           -2.161216933531    -1.306486987149     0.525026098063    12.000000000000
         C           -2.573330933531     0.182985012851     0.603838098063    12.000000000000
         F           -3.685063933531     0.342262012851    -0.147319901937    18.998403162730
         F           -2.892700933531     0.436544012851     1.900036098063    18.998403162730
         C           -1.529387933531     1.247995012851     0.171809098063    12.000000000000
         C           -0.177200933531     0.768602012851    -0.150676901937    12.000000000000
         C            0.829477066469     1.686264012851    -0.479040901937    12.000000000000
         C            2.107021066469     1.258951012851    -0.788269901937    12.000000000000
         C            2.401250066469    -0.113559987149    -0.769006901937    12.000000000000
         C            1.415224066469    -1.034738987149    -0.429421901937    12.000000000000
         C            0.119606066469    -0.600999987149    -0.135016901937    12.000000000000
         S            4.044997066469    -0.707459987149    -1.126900901937    31.972071174400
         C            4.955632066469     0.027951012851     0.267297098063    12.000000000000
         O           -2.951554933531    -2.188060987149     0.768720098063    15.994914619570
         O           -1.871435933531     2.407785012851     0.138999098063    15.994914619570
         H            2.873811066469     1.975488012851    -1.063900901937     1.007825032230
         H            0.572405066469     2.740838012851    -0.491165901937     1.007825032230
         H           -0.604524933531    -2.528934987149     0.156859098063     1.007825032230
         H            1.658406066469    -2.093002987149    -0.393706901937     1.007825032230
         H            4.965165066469     1.118787012851     0.212745098063     1.007825032230
         H            4.532008066469    -0.296232987149     1.220389098063     1.007825032230
         H            5.983145066469    -0.336542987149     0.190219098063     1.007825032230

  Running in c1 symmetry.

  Rotational constants: A =      0.03779  B =      0.00841  C =      0.00736 [cm^-1]
  Rotational constants: A =   1133.02616  B =    252.06821  C =    220.71918 [MHz]
  Nuclear repulsion = 1189.220311219577297

  Charge       = 0
  Multiplicity = 1
  Electrons    = 124
  Nalpha       = 62
  Nbeta        = 62

  ==> Algorithm <==

  SCF Algorithm Type is DF.
  DIIS enabled.
  MOM disabled.
  Fractional occupation disabled.
  Guess Type is SAD.
  Energy threshold   = 1.00e-06
  Density threshold  = 1.00e-06
  Integral threshold = 0.00e+00

  ==> Primary Basis <==

  Basis Set: 6-311++G**
    Blend: 6-311++G**
    Number of shells: 199
    Number of basis function: 409
    Number of Cartesian functions: 425
    Spherical Harmonics?: true
    Max angular momentum: 2

  ==> DFT Potential <==

   => Composite Functional: WB97X-D <= 

    wB97X-D Hyb-GGA Exchange-Correlation Functional

    J.-D. Chai and M. Head-Gordon, Phys. Chem. Chem. Phys. 10, 6615 (2008)

    Deriv               =              1
    GGA                 =           TRUE
    Meta                =          FALSE

    Exchange Hybrid     =           TRUE
    MP2 Hybrid          =          FALSE

   => Exchange-Correlation Functionals <=

    1.0000   wB97D range-separated functional

   => Exact (HF) Exchange <=

    0.7780            HF,LR [omega = 0.2000]
    0.2220               HF 

   => Molecular Quadrature <=

    Radial Scheme          =       TREUTLER
    Pruning Scheme         =           FLAT
    Nuclear Scheme         =       TREUTLER

    BS radius alpha        =              1
    Pruning alpha          =              1
    Radial Points          =             75
    Spherical Points       =            302
    Total Points           =         520868
    Total Blocks           =           3877
    Max Points             =            256
    Max Functions          =            321

   => WB97X-D: Empirical Dispersion <=

    Chai and Head-Gordon Dispersion Correction
    Chai, J.-D.; Head-Gordon, M. (2010), J. Chem. Phys., 132: 6615-6620

        s6 =       1.000000

   => Loading Basis Set <=

    Name: (6-311++G** AUX)
    Role: JKFIT
    Keyword: DF_BASIS_SCF
    atoms 1             entry N          line   224 file /fsx/users/francis/anaconda3/envs/poltype-dev/share/psi4/basis/aug-cc-pvtz-jkfit.gbs 
    atoms 2-3, 6-12, 14 entry C          line   162 file /fsx/users/francis/anaconda3/envs/poltype-dev/share/psi4/basis/aug-cc-pvtz-jkfit.gbs 
    atoms 4-5           entry F          line   348 file /fsx/users/francis/anaconda3/envs/poltype-dev/share/psi4/basis/aug-cc-pvtz-jkfit.gbs 
    atoms 13            entry S          line   730 file /fsx/users/francis/anaconda3/envs/poltype-dev/share/psi4/basis/aug-cc-pvtz-jkfit.gbs 
    atoms 15-16         entry O          line   286 file /fsx/users/francis/anaconda3/envs/poltype-dev/share/psi4/basis/aug-cc-pvtz-jkfit.gbs 
    atoms 17-23         entry H          line    70 file /fsx/users/francis/anaconda3/envs/poltype-dev/share/psi4/basis/aug-cc-pvtz-jkfit.gbs 

  ==> Pre-Iterations <==

   -------------------------------------------------------
    Irrep   Nso     Nmo     Nalpha   Nbeta   Ndocc  Nsocc
   -------------------------------------------------------
     A        409     409       0       0       0       0
   -------------------------------------------------------
    Total     409     409      62      62      62       0
   -------------------------------------------------------

  ==> Integral Setup <==

  ==> DiskDFJK: Density-Fitted J/K Matrices <==

    J tasked:                  Yes
    K tasked:                  Yes
    wK tasked:                 Yes
    Omega:               2.000E-01
    OpenMP threads:              8
    Integrals threads:           8
    Memory [MiB]:             7945
    Algorithm:                Core
    Integral Cache:           NONE
    Schwarz Cutoff:          1E-12
    Fitting Condition:       1E-10

   => Auxiliary Basis Set <=

  Basis Set: (6-311++G** AUX)
    Blend: AUG-CC-PVTZ-JKFIT
    Number of shells: 590
    Number of basis function: 2028
    Number of Cartesian functions: 2530
    Spherical Harmonics?: true
    Max angular momentum: 4

  Cached 100.0% of DFT collocation blocks in 3.416 [GiB].

  Minimum eigenvalue in the overlap matrix is 2.6599847255E-07.
  Using Symmetric Orthogonalization.

  SCF Guess: Superposition of Atomic Densities via on-the-fly atomic UHF.

  ==> Iterations <==

                           Total Energy        Delta E     RMS |[F,P]|

   @DF-RKS iter SAD: -1187.84870165524353   -1.18785e+03   0.00000e+00 
   @DF-RKS iter   1: -1187.77343090458362    7.52708e-02   2.82298e-03 DIIS
   @DF-RKS iter   2: -1187.82181506997449   -4.83842e-02   2.87004e-03 DIIS
   @DF-RKS iter   3: -1188.29926584932923   -4.77451e-01   6.97447e-04 DIIS
   @DF-RKS iter   4: -1188.32779675765300   -2.85309e-02   1.94997e-04 DIIS
   @DF-RKS iter   5: -1188.33048576175815   -2.68900e-03   5.34806e-05 DIIS
   @DF-RKS iter   6: -1188.33076863627821   -2.82875e-04   1.69914e-05 DIIS
   @DF-RKS iter   7: -1188.33080509133129   -3.64551e-05   6.50250e-06 DIIS
   @DF-RKS iter   8: -1188.33081606220048   -1.09709e-05   2.51045e-06 DIIS
   @DF-RKS iter   9: -1188.33081870338538   -2.64118e-06   1.21817e-06 DIIS
   @DF-RKS iter  10: -1188.33081899505214   -2.91667e-07   5.69763e-07 DIIS
  Energy and wave function converged.


  ==> Post-Iterations <==

    Orbital Energies [Eh]
    ---------------------

    Doubly Occupied:                                                      

       1A    -89.040982     2A    -24.843981     3A    -24.842766  
       4A    -19.276846     5A    -19.264068     6A    -14.520690  
       7A    -10.489462     8A    -10.440146     9A    -10.417474  
      10A    -10.394345    11A    -10.365937    12A    -10.339322  
      13A    -10.336309    14A    -10.335269    15A    -10.333460  
      16A    -10.326640    17A     -8.081547    18A     -6.031112  
      19A     -6.027120    20A     -6.020121    21A     -1.393829  
      22A     -1.332394    23A     -1.196120    24A     -1.187667  
      25A     -1.102391    26A     -1.007098    27A     -0.940830  
      28A     -0.906383    29A     -0.890652    30A     -0.867621  
      31A     -0.794238    32A     -0.769905    33A     -0.757037  
      34A     -0.744004    35A     -0.700625    36A     -0.686346  
      37A     -0.674389    38A     -0.649353    39A     -0.632404  
      40A     -0.594693    41A     -0.584246    42A     -0.573156  
      43A     -0.565898    44A     -0.560650    45A     -0.559405  
      46A     -0.555818    47A     -0.540081    48A     -0.538146  
      49A     -0.526026    50A     -0.520375    51A     -0.512771  
      52A     -0.501437    53A     -0.497787    54A     -0.481303  
      55A     -0.478103    56A     -0.444506    57A     -0.426548  
      58A     -0.399608    59A     -0.377966    60A     -0.369527  
      61A     -0.344044    62A     -0.330292  

    Virtual:                                                              

      63A     -0.051190    64A      0.009799    65A      0.027480  
      66A      0.034586    67A      0.043272    68A      0.048555  
      69A      0.057490    70A      0.064158    71A      0.066001  
      72A      0.073522    73A      0.078224    74A      0.087371  
      75A      0.090517    76A      0.099495    77A      0.103966  
      78A      0.108717    79A      0.113990    80A      0.120716  
      81A      0.124866    82A      0.129868    83A      0.133281  
      84A      0.134313    85A      0.138572    86A      0.140540  
      87A      0.151505    88A      0.156815    89A      0.159709  
      90A      0.163467    91A      0.171521    92A      0.171848  
      93A      0.173292    94A      0.178849    95A      0.184144  
      96A      0.186797    97A      0.189084    98A      0.192858  
      99A      0.195827   100A      0.198392   101A      0.204690  
     102A      0.206811   103A      0.211636   104A      0.220849  
     105A      0.223471   106A      0.231678   107A      0.233614  
     108A      0.238797   109A      0.244138   110A      0.246441  
     111A      0.250653   112A      0.253390   113A      0.256718  
     114A      0.262858   115A      0.268107   116A      0.274143  
     117A      0.280694   118A      0.284409   119A      0.287833  
     120A      0.291888   121A      0.293647   122A      0.302484  
     123A      0.304891   124A      0.312087   125A      0.313361  
     126A      0.317743   127A      0.320229   128A      0.329747  
     129A      0.333539   130A      0.336853   131A      0.343639  
     132A      0.346392   133A      0.348708   134A      0.359182  
     135A      0.366471   136A      0.371873   137A      0.375203  
     138A      0.376967   139A      0.381378   140A      0.387432  
     141A      0.390002   142A      0.395898   143A      0.400788  
     144A      0.410275   145A      0.419230   146A      0.427219  
     147A      0.434451   148A      0.437961   149A      0.441249  
     150A      0.442363   151A      0.460028   152A      0.467474  
     153A      0.468516   154A      0.471176   155A      0.496206  
     156A      0.501357   157A      0.512041   158A      0.520913  
     159A      0.530135   160A      0.538015   161A      0.542453  
     162A      0.547071   163A      0.576637   164A      0.585043  
     165A      0.598463   166A      0.603211   167A      0.610500  
     168A      0.616617   169A      0.626800   170A      0.635822  
     171A      0.639738   172A      0.645532   173A      0.658057  
     174A      0.670762   175A      0.680979   176A      0.684512  
     177A      0.699716   178A      0.706686   179A      0.724822  
     180A      0.734751   181A      0.743795   182A      0.747949  
     183A      0.750215   184A      0.754803   185A      0.765766  
     186A      0.771425   187A      0.777806   188A      0.787095  
     189A      0.800856   190A      0.802846   191A      0.814494  
     192A      0.824229   193A      0.830522   194A      0.853426  
     195A      0.869794   196A      0.880291   197A      0.893854  
     198A      0.905260   199A      0.918255   200A      0.931943  
     201A      0.943718   202A      0.947824   203A      0.951270  
     204A      0.955033   205A      0.971801   206A      0.989496  
     207A      0.993371   208A      1.004079   209A      1.013154  
     210A      1.024618   211A      1.036334   212A      1.045350  
     213A      1.054004   214A      1.063238   215A      1.088466  
     216A      1.112007   217A      1.123863   218A      1.128471  
     219A      1.144402   220A      1.161269   221A      1.172864  
     222A      1.180728   223A      1.188666   224A      1.197423  
     225A      1.210648   226A      1.227522   227A      1.228824  
     228A      1.260303   229A      1.279351   230A      1.284383  
     231A      1.293736   232A      1.312763   233A      1.315655  
     234A      1.339824   235A      1.358832   236A      1.382644  
     237A      1.405785   238A      1.466764   239A      1.472386  
     240A      1.484828   241A      1.496132   242A      1.513347  
     243A      1.520666   244A      1.540390   245A      1.555518  
     246A      1.572263   247A      1.579801   248A      1.589789  
     249A      1.598199   250A      1.604870   251A      1.622545  
     252A      1.631138   253A      1.634796   254A      1.652124  
     255A      1.660187   256A      1.666274   257A      1.683339  
     258A      1.686413   259A      1.697867   260A      1.700251  
     261A      1.733661   262A      1.764804   263A      1.769595  
     264A      1.778174   265A      1.792882   266A      1.811647  
     267A      1.819812   268A      1.827263   269A      1.855040  
     270A      1.861526   271A      1.888846   272A      1.908465  
     273A      1.918907   274A      1.934200   275A      1.942910  
     276A      1.953100   277A      1.975815   278A      1.988197  
     279A      2.001550   280A      2.009334   281A      2.020770  
     282A      2.033552   283A      2.041739   284A      2.056367  
     285A      2.072949   286A      2.077151   287A      2.090187  
     288A      2.104999   289A      2.124172   290A      2.164952  
     291A      2.179569   292A      2.206513   293A      2.239196  
     294A      2.249788   295A      2.271539   296A      2.304267  
     297A      2.313741   298A      2.319461   299A      2.323650  
     300A      2.364017   301A      2.422976   302A      2.476310  
     303A      2.517318   304A      2.524993   305A      2.532565  
     306A      2.543110   307A      2.591428   308A      2.600328  
     309A      2.609927   310A      2.646315   311A      2.652513  
     312A      2.686708   313A      2.751571   314A      2.756425  
     315A      2.785624   316A      2.790102   317A      2.809750  
     318A      2.816790   319A      2.827350   320A      2.837948  
     321A      2.859534   322A      2.886294   323A      2.890175  
     324A      2.918352   325A      2.920801   326A      2.946704  
     327A      2.954116   328A      2.970192   329A      2.992008  
     330A      3.025650   331A      3.037143   332A      3.047255  
     333A      3.059864   334A      3.084141   335A      3.098991  
     336A      3.127490   337A      3.164732   338A      3.214878  
     339A      3.288370   340A      3.296296   341A      3.308958  
     342A      3.360944   343A      3.417051   344A      3.423783  
     345A      3.428399   346A      3.478429   347A      3.529088  
     348A      3.541368   349A      3.599383   350A      3.629413  
     351A      3.649888   352A      3.688983   353A      3.706480  
     354A      3.779015   355A      3.809005   356A      3.815336  
     357A      3.842879   358A      3.848319   359A      3.855120  
     360A      3.898179   361A      3.913786   362A      3.948020  
     363A      3.974995   364A      4.001917   365A      4.023293  
     366A      4.073980   367A      4.116157   368A      4.172298  
     369A      4.243213   370A      4.302748   371A      4.360849  
     372A      4.521971   373A      4.821054   374A      4.887723  
     375A      4.914179   376A      5.002973   377A      5.144245  
     378A      5.153601   379A      5.206908   380A      5.325175  
     381A      5.336255   382A      5.831877   383A      5.882027  
     384A      6.439829   385A      6.471502   386A      6.529900  
     387A      6.574646   388A      6.663043   389A      6.867697  
     390A      8.092987   391A     17.507847   392A     17.572823  
     393A     17.645085   394A     23.630871   395A     23.743346  
     396A     23.968409   397A     24.002664   398A     24.021527  
     399A     24.031655   400A     24.041222   401A     24.135203  
     402A     24.186077   403A     24.275838   404A     35.756184  
     405A     50.138696   406A     50.157293   407A     66.889845  
     408A     66.970244   409A    189.354058  

    Final Occupation by Irrep:
              A 
    DOCC [    62 ]

  @DF-RKS Final Energy: -1188.33081899505214

   => Energetics <=

    Nuclear Repulsion Energy =           1189.2203112195772974
    One-Electron Energy =               -3993.3471278766091928
    Two-Electron Energy =                1705.5417279190648969
    DFT Exchange-Correlation Energy =     -89.7320400606580932
    Empirical Dispersion Energy =          -0.0136901964271054
    VV10 Nonlocal Energy =                  0.0000000000000000
    Total Energy =                      -1188.3308189950521410

Computation Completed


Properties will be evaluated at   0.000000,   0.000000,   0.000000 [a0]

Properties computed using the SCF density matrix

  Nuclear Dipole Moment: [e a0]
     X:    25.0222      Y:    -0.2037      Z:    -1.8374

  Electronic Dipole Moment: [e a0]
     X:   -22.2947      Y:    -0.1188      Z:     1.6934

  Dipole Moment: [e a0]
     X:     2.7275      Y:    -0.3225      Z:    -0.1440     Total:     2.7503

  Dipole Moment: [D]
     X:     6.9327      Y:    -0.8197      Z:    -0.3660     Total:     6.9905


*** tstop() called on cpu-spot-dy-c5n2xlarge-1 at Tue Jun 22 07:16:51 2021
Module time:
	user time   =     646.75 seconds =      10.78 minutes
	system time =      10.43 seconds =       0.17 minutes
	total time  =         89 seconds =       1.48 minutes
Total time:
	user time   =     646.75 seconds =      10.78 minutes
	system time =      10.43 seconds =       0.17 minutes
	total time  =         89 seconds =       1.48 minutes


Properties will be evaluated at   0.000000,   0.000000,   0.000000 [a0]
OEProp: No title given, name of density matrix used for the following properties is 'SCF density'


  Wiberg Bond Indices using Orthogonal Lowdin Orbitals:

  Irrep: 1 Size: 23 x 23

                 1                   2                   3                   4                   5

    1     0.00000000000000     1.31923978878333     0.10127851815759     0.01232895514543     0.01421429738857
    2     1.31923978878333     0.00000000000000     0.88400038249214     0.10989648056953     0.11126012969160
    3     0.10127851815759     0.88400038249214     0.00000000000000     1.37113699986964     1.35210330331687
    4     0.01232895514543     0.10989648056953     1.37113699986964     0.00000000000000     0.13784451258521
    5     0.01421429738857     0.11126012969160     1.35210330331687     0.13784451258521     0.00000000000000
    6     0.03441217778861     0.07411489095380     0.89682763956945     0.10808468098899     0.11079922594521
    7     0.11945864531238     0.03636307326943     0.09863870859289     0.01246566217095     0.01404845750811
    8     0.01503445824923     0.00377107045251     0.01329912543918     0.00194085290816     0.00202356589875
    9     0.01553957507929     0.00596181246269     0.00241852128151     0.00036448425289     0.00034759982833
   10     0.01746110532993     0.00306734875540     0.00148606963673     0.00038339281813     0.00052602068680
   11     0.13103737885462     0.02540297548513     0.00412333173428     0.00045092599332     0.00053776968823
   12     1.19103610730276     0.09725781294781     0.03127950965915     0.00406219052990     0.00516226416462
   13     0.00252729751943     0.00076516744638     0.00036252615109     0.00008186636748     0.00012096081863
   14     0.00045602735371     0.00013013605433     0.00010418983906     0.00002934494731     0.00003867048247
   15     0.24760619222279     2.29310786470095     0.15102773285881     0.04091435636349     0.03749087396694
   16     0.00518182274134     0.01586771613043     0.15988169584247     0.04425444837864     0.04138548591174
   17     0.00073897296494     0.00024072830569     0.00050196224603     0.00007166677480     0.00006422561420
   18     0.00128740505235     0.00048725583839     0.00210247068730     0.00033651463673     0.00029502229079
   19     0.91311692261866     0.07314880402879     0.01371194113264     0.00177069976311     0.00162795784128
   20     0.02294889315760     0.00224166920800     0.00071392103474     0.00010874210718     0.00010471039290
   21     0.00007592403210     0.00002538212671     0.00002359416379     0.00000443067336     0.00000468037919
   22     0.00005638285022     0.00001917325584     0.00001488128108     0.00000409239849     0.00000534675979
   23     0.00005613037265     0.00001918462375     0.00001189287002     0.00000329126560     0.00000366874515

                 6                   7                   8                   9                  10

    1     0.03441217778861     0.11945864531238     0.01503445824923     0.01553957507929     0.01746110532993
    2     0.07411489095380     0.03636307326943     0.00377107045251     0.00596181246269     0.00306734875540
    3     0.89682763956945     0.09863870859289     0.01329912543918     0.00241852128151     0.00148606963673
    4     0.10808468098899     0.01246566217095     0.00194085290816     0.00036448425289     0.00038339281813
    5     0.11079922594521     0.01404845750811     0.00202356589875     0.00034759982833     0.00052602068680
    6     0.00000000000000     1.05548889662029     0.11942355011722     0.01892769889191     0.01557035973249
    7     1.05548889662029     0.00000000000000     1.33655564673349     0.13066825918737     0.11349503262193
    8     0.11942355011722     1.33655564673349     0.00000000000000     1.50979563308080     0.13629013880294
    9     0.01892769889191     0.13066825918737     1.50979563308080     0.00000000000000     1.38736444440847
   10     0.01557035973249     0.11349503262193     0.13629013880294     1.38736444440847     0.00000000000000
   11     0.01488555366026     0.11994808358793     0.12607434222626     0.13027766773333     1.46042758594188
   12     0.11593316742426     1.29860398831132     0.12433837268504     0.11457001609167     0.13133485862582
   13     0.00255108856731     0.01166713238433     0.02242717908996     0.14692050547148     1.26199652471335
   14     0.00085958486015     0.00498075671018     0.00437343484490     0.03963229509621     0.08779790675450
   15     0.01548805638052     0.00998284671860     0.00114998695029     0.00529857120505     0.00198528747206
   16     2.32571191492916     0.16307894568305     0.07421752970347     0.00539947205784     0.01695709821416
   17     0.00149774368703     0.01259176630809     0.08251856146610     0.86158385656336     0.07566892442352
   18     0.02032322060321     0.07691969352223     0.85283562307634     0.08082576614971     0.01220140770041
   19     0.00257722288297     0.01262426399588     0.00169344113816     0.00136969675451     0.00197004989917
   20     0.00169970458669     0.01142392474015     0.00567909571383     0.01260432756852     0.07602014249212
   21     0.00011927294851     0.00056451951153     0.00146695102037     0.01165137064974     0.01373258357615
   22     0.00008231156011     0.00047111356360     0.00048868633400     0.00615218232642     0.01737849841715
   23     0.00009918378918     0.00056441443695     0.00046366622983     0.00271679541003     0.01288303584697

                11                  12                  13                  14                  15

    1     0.13103737885462     1.19103610730276     0.00252729751943     0.00045602735371     0.24760619222279
    2     0.02540297548513     0.09725781294781     0.00076516744638     0.00013013605433     2.29310786470095
    3     0.00412333173428     0.03127950965915     0.00036252615109     0.00010418983906     0.15102773285881
    4     0.00045092599332     0.00406219052990     0.00008186636748     0.00002934494731     0.04091435636349
    5     0.00053776968823     0.00516226416462     0.00012096081863     0.00003867048247     0.03749087396694
    6     0.01488555366026     0.11593316742426     0.00255108856731     0.00085958486015     0.01548805638052
    7     0.11994808358793     1.29860398831132     0.01166713238433     0.00498075671018     0.00998284671860
    8     0.12607434222626     0.12433837268504     0.02242717908996     0.00437343484490     0.00114998695029
    9     0.13027766773333     0.11457001609167     0.14692050547148     0.03963229509621     0.00529857120505
   10     1.46042758594188     0.13133485862582     1.26199652471335     0.08779790675450     0.00198528747206
   11     0.00000000000000     1.35864101399702     0.17037988022087     0.02772824923405     0.01113879039521
   12     1.35864101399702     0.00000000000000     0.02108170860439     0.00310628346548     0.03053524522318
   13     0.17037988022087     0.02108170860439     0.00000000000000     1.24120899274208     0.00033094845533
   14     0.02772824923405     0.00310628346548     1.24120899274208     0.00000000000000     0.00010659773146
   15     0.01113879039521     0.03053524522318     0.00033094845533     0.00010659773146     0.00000000000000
   16     0.00419633387495     0.04377892813221     0.00255385993123     0.00111167016007     0.00572971789002
   17     0.01223185644432     0.00542586715334     0.02467297891306     0.01026790326761     0.00018761252910
   18     0.00536858621917     0.01186180541516     0.00226350834351     0.00034697749692     0.00019607424234
   19     0.02023228540608     0.06555927491313     0.00037312925176     0.00007756998529     0.02854648998935
   20     0.85044249845759     0.07683113474753     0.03172460148650     0.00294406164197     0.00062738090073
   21     0.00302236151685     0.00042754412507     0.06771175266626     0.94316528555722     0.00001543600611
   22     0.00508590296791     0.00045136775231     0.06542884468631     0.94240289735571     0.00001125481795
   23     0.00231574459963     0.00037334836446     0.07063250108592     0.94654383173682     0.00000926982793

                16                  17                  18                  19                  20

    1     0.00518182274134     0.00073897296494     0.00128740505235     0.91311692261866     0.02294889315760
    2     0.01586771613043     0.00024072830569     0.00048725583839     0.07314880402879     0.00224166920800
    3     0.15988169584247     0.00050196224603     0.00210247068730     0.01371194113264     0.00071392103474
    4     0.04425444837864     0.00007166677480     0.00033651463673     0.00177069976311     0.00010874210718
    5     0.04138548591174     0.00006422561420     0.00029502229079     0.00162795784128     0.00010471039290
    6     2.32571191492916     0.00149774368703     0.02032322060321     0.00257722288297     0.00169970458669
    7     0.16307894568305     0.01259176630809     0.07691969352223     0.01262426399588     0.01142392474015
    8     0.07421752970347     0.08251856146610     0.85283562307634     0.00169344113816     0.00567909571383
    9     0.00539947205784     0.86158385656336     0.08082576614971     0.00136969675451     0.01260432756852
   10     0.01695709821416     0.07566892442352     0.01220140770041     0.00197004989917     0.07602014249212
   11     0.00419633387495     0.01223185644432     0.00536858621917     0.02023228540608     0.85044249845759
   12     0.04377892813221     0.00542586715334     0.01186180541516     0.06555927491313     0.07683113474753
   13     0.00255385993123     0.02467297891306     0.00226350834351     0.00037312925176     0.03172460148650
   14     0.00111167016007     0.01026790326761     0.00034697749692     0.00007756998529     0.00294406164197
   15     0.00572971789002     0.00018761252910     0.00019607424234     0.02854648998935     0.00062738090073
   16     0.00000000000000     0.00034737913581     0.02137558493672     0.00052964668213     0.00057561945031
   17     0.00034737913581     0.00000000000000     0.01002132634641     0.00010946115903     0.00117076246395
   18     0.02137558493672     0.01002132634641     0.00000000000000     0.00060334969301     0.00048933983976
   19     0.00052964668213     0.00010946115903     0.00060334969301     0.00000000000000     0.00638803140953
   20     0.00057561945031     0.00117076246395     0.00048933983976     0.00638803140953     0.00000000000000
   21     0.00011234026496     0.00391312081452     0.00008970839439     0.00001275459216     0.00041790800808
   22     0.00008746802360     0.00104557812072     0.00003393998063     0.00001914156683     0.00058586258364
   23     0.00014056890189     0.00049781830040     0.00004109341716     0.00000770345807     0.00019404455730

                21                  22                  23

    1     0.00007592403210     0.00005638285022     0.00005613037265
    2     0.00002538212671     0.00001917325584     0.00001918462375
    3     0.00002359416379     0.00001488128108     0.00001189287002
    4     0.00000443067336     0.00000409239849     0.00000329126560
    5     0.00000468037919     0.00000534675979     0.00000366874515
    6     0.00011927294851     0.00008231156011     0.00009918378918
    7     0.00056451951153     0.00047111356360     0.00056441443695
    8     0.00146695102037     0.00048868633400     0.00046366622983
    9     0.01165137064974     0.00615218232642     0.00271679541003
   10     0.01373258357615     0.01737849841715     0.01288303584697
   11     0.00302236151685     0.00508590296791     0.00231574459963
   12     0.00042754412507     0.00045136775231     0.00037334836446
   13     0.06771175266626     0.06542884468631     0.07063250108592
   14     0.94316528555722     0.94240289735571     0.94654383173682
   15     0.00001543600611     0.00001125481795     0.00000926982793
   16     0.00011234026496     0.00008746802360     0.00014056890189
   17     0.00391312081452     0.00104557812072     0.00049781830040
   18     0.00008970839439     0.00003393998063     0.00004109341716
   19     0.00001275459216     0.00001914156683     0.00000770345807
   20     0.00041790800808     0.00058586258364     0.00019404455730
   21     0.00000000000000     0.03872643775365     0.04159458137234
   22     0.03872643775365     0.00000000000000     0.04155763175069
   23     0.04159458137234     0.04155763175069     0.00000000000000



  Atomic Valences: 

 #  #
 Irrep: 1
      1:  4.1650930
      2:  5.0563888
      3:  5.0850489
      4:  1.8465386
      5:  1.8300087
      6:  4.9354771
      7:  4.6406038
      8:  4.4358609
      9:  4.4903906
     10:  4.8459978
     11:  4.4839491
     12:  4.7316518
     13:  3.1477830
     14:  4.2574127
     15:  2.8814866
     16:  2.9324752
     17:  1.1053701
     18:  1.1003057
     19:  1.1460698
     20:  1.1059364
     21:  1.1268779
     22:  1.1201090
     23:  1.1207294


    Psi4 stopped on: Tuesday, 22 June 2021 07:16AM
    Psi4 wall time for execution: 0:01:29.37

*** Psi4 exiting successfully. Buy a developer a beer!
