
    -----------------------------------------------------------------------
          Psi4: An Open-Source Ab Initio Electronic Structure Package
                               Psi4 1.3.2 release

                         Git: Rev {HEAD} ecbda83 


    R. M. Parrish, L. A. Burns, D. G. A. Smith, A. C. Simmonett,
    A. E. DePrince III, E. G. Hohenstein, U. Bozkaya, A. Yu. Sokolov,
    R. Di Remigio, R. M. Richard, J. F. Gonthier, A. M. James,
    H. R. McAlexander, A. Kumar, M. Saitow, X. Wang, B. P. Pritchard,
    P. Verma, H. F. Schaefer III, K. Patkowski, R. A. King, E. F. Valeev,
    F. A. Evangelista, J. M. Turney, T. D. Crawford, and C. D. Sherrill,
    J. Chem. Theory Comput. 13(7) pp 3185--3197 (2017).
    (doi: 10.1021/acs.jctc.7b00174)


                         Additional Contributions by
    P. Kraus, H. Kruse, M. H. Lechner, M. C. Schieber, R. A. Shaw,
    A. Alenaizan, R. Galvelis, Z. L. Glick, S. Lehtola, and J. P. Misiewicz

    -----------------------------------------------------------------------


    Psi4 started on: Tuesday, 22 June 2021 07:42AM

    Process ID: 32105
    Host:       cpu-spot-dy-c5n2xlarge-1
    PSIDATADIR: /fsx/users/francis/anaconda3/envs/poltype-dev/share/psi4
    Memory:     500.0 MiB
    Threads:    1
    
  ==> Input File <==

--------------------------------------------------------------------------
molecule { 
0 1
 N   -1.015822   -1.490143    0.149085
 C   -2.314458   -1.139685    0.406536
 C   -2.602837    0.377905    0.494302
 F   -3.544122    0.662650   -0.438643
 F   -3.132200    0.616730    1.719028
 C   -1.414852    1.356883    0.288677
 C   -0.100214    0.765414    0.023505
 C    1.015746    1.585239   -0.173724
 C    2.267351    1.055382   -0.430819
 C    2.429037   -0.337928   -0.501347
 C    1.322567   -1.170323   -0.297662
 C    0.067491   -0.628512   -0.043694
 S    3.955501   -1.174452   -0.782862
 C    5.217360    0.126395   -0.816841
 O   -3.195997   -1.953199    0.558355
 O   -1.636024    2.545591    0.357279
 H    3.097869    1.728706   -0.603498
 H    0.873351    2.660613   -0.124267
 H   -0.852953   -2.488413    0.094485
 H    1.445805   -2.250186   -0.335714
 H    5.441315    0.442812   -1.837421
 H    4.949785    0.973029   -0.184348
 H    6.119926   -0.326782   -0.398599
}
memory 16GB
set_num_threads(8)
psi4_io.set_default_path("/scratch/Psi4-ligand")
set freeze_core True
E, wfn = energy('wb97x-d/6-311++g**',return_wfn=True)
oeprop(wfn,"WIBERG_LOWDIN_INDICES")
clean()
--------------------------------------------------------------------------

  Memory set to  14.901 GiB by Python driver.
  Threads set to 8 by Python driver.

*** tstart() called on cpu-spot-dy-c5n2xlarge-1
*** at Tue Jun 22 07:42:04 2021

   => Loading Basis Set <=

    Name: 6-311++G**
    Role: ORBITAL
    Keyword: BASIS
    atoms 1             entry N          line   140 file /fsx/users/francis/anaconda3/envs/poltype-dev/share/psi4/basis/6-311ppgss.gbs 
    atoms 2-3, 6-12, 14 entry C          line   119 file /fsx/users/francis/anaconda3/envs/poltype-dev/share/psi4/basis/6-311ppgss.gbs 
    atoms 4-5           entry F          line   182 file /fsx/users/francis/anaconda3/envs/poltype-dev/share/psi4/basis/6-311ppgss.gbs 
    atoms 13            entry S          line   419 file /fsx/users/francis/anaconda3/envs/poltype-dev/share/psi4/basis/6-311ppgss.gbs 
    atoms 15-16         entry O          line   161 file /fsx/users/francis/anaconda3/envs/poltype-dev/share/psi4/basis/6-311ppgss.gbs 
    atoms 17-23         entry H          line    42 file /fsx/users/francis/anaconda3/envs/poltype-dev/share/psi4/basis/6-311ppgss.gbs 


         ---------------------------------------------------------
                                   SCF
               by Justin Turney, Rob Parrish, Andy Simmonett
                          and Daniel G. A. Smith
                              RKS Reference
                        8 Threads,  15258 MiB Core
         ---------------------------------------------------------

  ==> Geometry <==

    Molecular point group: c1
    Full point group: C1

    Geometry (in Angstrom), charge = 0, multiplicity = 1:

       Center              X                  Y                   Z               Mass       
    ------------   -----------------  -----------------  -----------------  -----------------
         N           -1.015822048750    -1.490142994457     0.149085004429    14.003074004430
         C           -2.314458048750    -1.139684994457     0.406536004429    12.000000000000
         C           -2.602837048750     0.377905005543     0.494302004429    12.000000000000
         F           -3.544122048750     0.662650005543    -0.438642995571    18.998403162730
         F           -3.132200048750     0.616730005543     1.719028004429    18.998403162730
         C           -1.414852048750     1.356883005543     0.288677004429    12.000000000000
         C           -0.100214048750     0.765414005543     0.023505004429    12.000000000000
         C            1.015745951250     1.585239005543    -0.173723995571    12.000000000000
         C            2.267350951250     1.055382005543    -0.430818995571    12.000000000000
         C            2.429036951250    -0.337927994457    -0.501346995571    12.000000000000
         C            1.322566951250    -1.170322994457    -0.297661995571    12.000000000000
         C            0.067490951250    -0.628511994457    -0.043693995571    12.000000000000
         S            3.955500951250    -1.174451994457    -0.782861995571    31.972071174400
         C            5.217359951250     0.126395005543    -0.816840995571    12.000000000000
         O           -3.195997048750    -1.953198994457     0.558355004429    15.994914619570
         O           -1.636024048750     2.545591005543     0.357279004429    15.994914619570
         H            3.097868951250     1.728706005543    -0.603497995571     1.007825032230
         H            0.873350951250     2.660613005543    -0.124266995571     1.007825032230
         H           -0.852953048750    -2.488412994457     0.094485004429     1.007825032230
         H            1.445804951250    -2.250185994457    -0.335713995571     1.007825032230
         H            5.441314951250     0.442812005543    -1.837420995571     1.007825032230
         H            4.949784951250     0.973029005543    -0.184347995571     1.007825032230
         H            6.119925951250    -0.326781994457    -0.398598995571     1.007825032230

  Running in c1 symmetry.

  Rotational constants: A =      0.03958  B =      0.00827  C =      0.00712 [cm^-1]
  Rotational constants: A =   1186.62830  B =    247.97153  C =    213.40422 [MHz]
  Nuclear repulsion = 1187.339249337289175

  Charge       = 0
  Multiplicity = 1
  Electrons    = 124
  Nalpha       = 62
  Nbeta        = 62

  ==> Algorithm <==

  SCF Algorithm Type is DF.
  DIIS enabled.
  MOM disabled.
  Fractional occupation disabled.
  Guess Type is SAD.
  Energy threshold   = 1.00e-06
  Density threshold  = 1.00e-06
  Integral threshold = 0.00e+00

  ==> Primary Basis <==

  Basis Set: 6-311++G**
    Blend: 6-311++G**
    Number of shells: 199
    Number of basis function: 409
    Number of Cartesian functions: 425
    Spherical Harmonics?: true
    Max angular momentum: 2

  ==> DFT Potential <==

   => Composite Functional: WB97X-D <= 

    wB97X-D Hyb-GGA Exchange-Correlation Functional

    J.-D. Chai and M. Head-Gordon, Phys. Chem. Chem. Phys. 10, 6615 (2008)

    Deriv               =              1
    GGA                 =           TRUE
    Meta                =          FALSE

    Exchange Hybrid     =           TRUE
    MP2 Hybrid          =          FALSE

   => Exchange-Correlation Functionals <=

    1.0000   wB97D range-separated functional

   => Exact (HF) Exchange <=

    0.7780            HF,LR [omega = 0.2000]
    0.2220               HF 

   => Molecular Quadrature <=

    Radial Scheme          =       TREUTLER
    Pruning Scheme         =           FLAT
    Nuclear Scheme         =       TREUTLER

    BS radius alpha        =              1
    Pruning alpha          =              1
    Radial Points          =             75
    Spherical Points       =            302
    Total Points           =         520867
    Total Blocks           =           3877
    Max Points             =            256
    Max Functions          =            324

   => WB97X-D: Empirical Dispersion <=

    Chai and Head-Gordon Dispersion Correction
    Chai, J.-D.; Head-Gordon, M. (2010), J. Chem. Phys., 132: 6615-6620

        s6 =       1.000000

   => Loading Basis Set <=

    Name: (6-311++G** AUX)
    Role: JKFIT
    Keyword: DF_BASIS_SCF
    atoms 1             entry N          line   224 file /fsx/users/francis/anaconda3/envs/poltype-dev/share/psi4/basis/aug-cc-pvtz-jkfit.gbs 
    atoms 2-3, 6-12, 14 entry C          line   162 file /fsx/users/francis/anaconda3/envs/poltype-dev/share/psi4/basis/aug-cc-pvtz-jkfit.gbs 
    atoms 4-5           entry F          line   348 file /fsx/users/francis/anaconda3/envs/poltype-dev/share/psi4/basis/aug-cc-pvtz-jkfit.gbs 
    atoms 13            entry S          line   730 file /fsx/users/francis/anaconda3/envs/poltype-dev/share/psi4/basis/aug-cc-pvtz-jkfit.gbs 
    atoms 15-16         entry O          line   286 file /fsx/users/francis/anaconda3/envs/poltype-dev/share/psi4/basis/aug-cc-pvtz-jkfit.gbs 
    atoms 17-23         entry H          line    70 file /fsx/users/francis/anaconda3/envs/poltype-dev/share/psi4/basis/aug-cc-pvtz-jkfit.gbs 

  ==> Pre-Iterations <==

   -------------------------------------------------------
    Irrep   Nso     Nmo     Nalpha   Nbeta   Ndocc  Nsocc
   -------------------------------------------------------
     A        409     409       0       0       0       0
   -------------------------------------------------------
    Total     409     409      62      62      62       0
   -------------------------------------------------------

  ==> Integral Setup <==

  ==> DiskDFJK: Density-Fitted J/K Matrices <==

    J tasked:                  Yes
    K tasked:                  Yes
    wK tasked:                 Yes
    Omega:               2.000E-01
    OpenMP threads:              8
    Integrals threads:           8
    Memory [MiB]:             7969
    Algorithm:                Core
    Integral Cache:           NONE
    Schwarz Cutoff:          1E-12
    Fitting Condition:       1E-10

   => Auxiliary Basis Set <=

  Basis Set: (6-311++G** AUX)
    Blend: AUG-CC-PVTZ-JKFIT
    Number of shells: 590
    Number of basis function: 2028
    Number of Cartesian functions: 2530
    Spherical Harmonics?: true
    Max angular momentum: 4

  Cached 100.0% of DFT collocation blocks in 3.393 [GiB].

  Minimum eigenvalue in the overlap matrix is 2.2631448034E-07.
  Using Symmetric Orthogonalization.

  SCF Guess: Superposition of Atomic Densities via on-the-fly atomic UHF.

  ==> Iterations <==

                           Total Energy        Delta E     RMS |[F,P]|

   @DF-RKS iter SAD: -1187.90746783677173   -1.18791e+03   0.00000e+00 
   @DF-RKS iter   1: -1187.70686010565896    2.00608e-01   2.91429e-03 DIIS
   @DF-RKS iter   2: -1187.75366582498214   -4.68057e-02   2.98611e-03 DIIS
   @DF-RKS iter   3: -1188.30285178586951   -5.49186e-01   6.53739e-04 DIIS
   @DF-RKS iter   4: -1188.32666459926281   -2.38128e-02   2.40429e-04 DIIS
   @DF-RKS iter   5: -1188.33075534084810   -4.09074e-03   6.27333e-05 DIIS
   @DF-RKS iter   6: -1188.33119247620220   -4.37135e-04   1.88837e-05 DIIS
   @DF-RKS iter   7: -1188.33124901764609   -5.65414e-05   8.04138e-06 DIIS
   @DF-RKS iter   8: -1188.33126553553598   -1.65179e-05   3.29066e-06 DIIS
   @DF-RKS iter   9: -1188.33126865495433   -3.11942e-06   1.50672e-06 DIIS
   @DF-RKS iter  10: -1188.33126901134983   -3.56396e-07   5.76042e-07 DIIS
  Energy and wave function converged.


  ==> Post-Iterations <==

    Orbital Energies [Eh]
    ---------------------

    Doubly Occupied:                                                      

       1A    -89.054204     2A    -24.838768     3A    -24.838756  
       4A    -19.268997     5A    -19.260044     6A    -14.516805  
       7A    -10.484658     8A    -10.436238     9A    -10.411028  
      10A    -10.390926    11A    -10.373262    12A    -10.341426  
      13A    -10.334874    14A    -10.331210    15A    -10.330742  
      16A    -10.324694    17A     -8.094824    18A     -6.044321  
      19A     -6.039821    20A     -6.034000    21A     -1.389050  
      22A     -1.327629    23A     -1.192136    24A     -1.179950  
      25A     -1.098399    26A     -1.006623    27A     -0.944582  
      28A     -0.906445    29A     -0.888822    30A     -0.868839  
      31A     -0.800671    32A     -0.765744    33A     -0.753482  
      34A     -0.745934    35A     -0.697407    36A     -0.684232  
      37A     -0.669718    38A     -0.646945    39A     -0.630561  
      40A     -0.593264    41A     -0.588363    42A     -0.569100  
      43A     -0.563744    44A     -0.557894    45A     -0.556010  
      46A     -0.554643    47A     -0.549195    48A     -0.534837  
      49A     -0.519065    50A     -0.516317    51A     -0.507964  
      52A     -0.498981    53A     -0.490473    54A     -0.489165  
      55A     -0.475572    56A     -0.443742    57A     -0.433853  
      58A     -0.399256    59A     -0.395211    60A     -0.363987  
      61A     -0.341782    62A     -0.319477  

    Virtual:                                                              

      63A     -0.043466    64A      0.012513    65A      0.025446  
      66A      0.033733    67A      0.046707    68A      0.052222  
      69A      0.059915    70A      0.064896    71A      0.069500  
      72A      0.074236    73A      0.079275    74A      0.084070  
      75A      0.092183    76A      0.099050    77A      0.101787  
      78A      0.105267    79A      0.112305    80A      0.117997  
      81A      0.126013    82A      0.127902    83A      0.131724  
      84A      0.139266    85A      0.141595    86A      0.149579  
      87A      0.154895    88A      0.156185    89A      0.163980  
      90A      0.167725    91A      0.172263    92A      0.173198  
      93A      0.174145    94A      0.175811    95A      0.183546  
      96A      0.188587    97A      0.191996    98A      0.196940  
      99A      0.199229   100A      0.201322   101A      0.205978  
     102A      0.209489   103A      0.211311   104A      0.214233  
     105A      0.220881   106A      0.228701   107A      0.232736  
     108A      0.235596   109A      0.243132   110A      0.245733  
     111A      0.248500   112A      0.254883   113A      0.261009  
     114A      0.264930   115A      0.271564   116A      0.274695  
     117A      0.279529   118A      0.284822   119A      0.288684  
     120A      0.294229   121A      0.302929   122A      0.305808  
     123A      0.309809   124A      0.313401   125A      0.314460  
     126A      0.323123   127A      0.328454   128A      0.335330  
     129A      0.336608   130A      0.341236   131A      0.348228  
     132A      0.355637   133A      0.358360   134A      0.360069  
     135A      0.361224   136A      0.373646   137A      0.375312  
     138A      0.379745   139A      0.388896   140A      0.390464  
     141A      0.399508   142A      0.406992   143A      0.407305  
     144A      0.409416   145A      0.421701   146A      0.430724  
     147A      0.433470   148A      0.435531   149A      0.442443  
     150A      0.446546   151A      0.455552   152A      0.468066  
     153A      0.471197   154A      0.475655   155A      0.500597  
     156A      0.513859   157A      0.519077   158A      0.527420  
     159A      0.537008   160A      0.542712   161A      0.548301  
     162A      0.555704   163A      0.584847   164A      0.588491  
     165A      0.603685   166A      0.608814   167A      0.611923  
     168A      0.621199   169A      0.633117   170A      0.636155  
     171A      0.642542   172A      0.643940   173A      0.658827  
     174A      0.662499   175A      0.673634   176A      0.686810  
     177A      0.697556   178A      0.714605   179A      0.725637  
     180A      0.734730   181A      0.741024   182A      0.745190  
     183A      0.752777   184A      0.753770   185A      0.766279  
     186A      0.770620   187A      0.781462   188A      0.784931  
     189A      0.800621   190A      0.808743   191A      0.822325  
     192A      0.828998   193A      0.854386   194A      0.862964  
     195A      0.870054   196A      0.874087   197A      0.890368  
     198A      0.901781   199A      0.919639   200A      0.939945  
     201A      0.941636   202A      0.947930   203A      0.951950  
     204A      0.970482   205A      0.975757   206A      0.984823  
     207A      0.997932   208A      1.005189   209A      1.015624  
     210A      1.017498   211A      1.028306   212A      1.049176  
     213A      1.052782   214A      1.064698   215A      1.096693  
     216A      1.106824   217A      1.114393   218A      1.131721  
     219A      1.142537   220A      1.163108   221A      1.173442  
     222A      1.185416   223A      1.197496   224A      1.205452  
     225A      1.214030   226A      1.221401   227A      1.251816  
     228A      1.262504   229A      1.275485   230A      1.296277  
     231A      1.297721   232A      1.309395   233A      1.321884  
     234A      1.332363   235A      1.365736   236A      1.390504  
     237A      1.411646   238A      1.466621   239A      1.472527  
     240A      1.482905   241A      1.500276   242A      1.522386  
     243A      1.523596   244A      1.545742   245A      1.562699  
     246A      1.577930   247A      1.578309   248A      1.595254  
     249A      1.600900   250A      1.609753   251A      1.621056  
     252A      1.629234   253A      1.640776   254A      1.648309  
     255A      1.655399   256A      1.671551   257A      1.672750  
     258A      1.691561   259A      1.697628   260A      1.708121  
     261A      1.728894   262A      1.750349   263A      1.761118  
     264A      1.784355   265A      1.795814   266A      1.800657  
     267A      1.825834   268A      1.834817   269A      1.855961  
     270A      1.865702   271A      1.887828   272A      1.895751  
     273A      1.915367   274A      1.945195   275A      1.952201  
     276A      1.954000   277A      1.989751   278A      1.995034  
     279A      1.998205   280A      2.015718   281A      2.029927  
     282A      2.033349   283A      2.043989   284A      2.065305  
     285A      2.071736   286A      2.088598   287A      2.101475  
     288A      2.123304   289A      2.127336   290A      2.169733  
     291A      2.204571   292A      2.213112   293A      2.237260  
     294A      2.243336   295A      2.276102   296A      2.290355  
     297A      2.315192   298A      2.328972   299A      2.338448  
     300A      2.376769   301A      2.437089   302A      2.478841  
     303A      2.512431   304A      2.521834   305A      2.532139  
     306A      2.548251   307A      2.573130   308A      2.596813  
     309A      2.631232   310A      2.649193   311A      2.660226  
     312A      2.684973   313A      2.746403   314A      2.770722  
     315A      2.783538   316A      2.792509   317A      2.805594  
     318A      2.825476   319A      2.829117   320A      2.839546  
     321A      2.861868   322A      2.885010   323A      2.896684  
     324A      2.911626   325A      2.927920   326A      2.941230  
     327A      2.962320   328A      2.973321   329A      2.987213  
     330A      3.005916   331A      3.042776   332A      3.049564  
     333A      3.061147   334A      3.086610   335A      3.101986  
     336A      3.135833   337A      3.163673   338A      3.191691  
     339A      3.288464   340A      3.296161   341A      3.328529  
     342A      3.364930   343A      3.412171   344A      3.428748  
     345A      3.431108   346A      3.485924   347A      3.534705  
     348A      3.543354   349A      3.605736   350A      3.634581  
     351A      3.654936   352A      3.690493   353A      3.711972  
     354A      3.783233   355A      3.791680   356A      3.826568  
     357A      3.846318   358A      3.852979   359A      3.867492  
     360A      3.907596   361A      3.916057   362A      3.953934  
     363A      3.977626   364A      4.006445   365A      4.029156  
     366A      4.078101   367A      4.117553   368A      4.185740  
     369A      4.245667   370A      4.311053   371A      4.370892  
     372A      4.531619   373A      4.827682   374A      4.893101  
     375A      4.917703   376A      5.000938   377A      5.148924  
     378A      5.155134   379A      5.213138   380A      5.332492  
     381A      5.343843   382A      5.841214   383A      5.886469  
     384A      6.439398   385A      6.470818   386A      6.539989  
     387A      6.584266   388A      6.672065   389A      6.867750  
     390A      8.097056   391A     17.438901   392A     17.613115  
     393A     17.650610   394A     23.629981   395A     23.747324  
     396A     23.971515   397A     24.004519   398A     24.019143  
     399A     24.035653   400A     24.040990   401A     24.134512  
     402A     24.190800   403A     24.276696   404A     35.760446  
     405A     50.146040   406A     50.164484   407A     66.892728  
     408A     66.976243   409A    189.360487  

    Final Occupation by Irrep:
              A 
    DOCC [    62 ]

  @DF-RKS Final Energy: -1188.33126901134983

   => Energetics <=

    Nuclear Repulsion Energy =           1187.3392493372891749
    One-Electron Energy =               -3989.6512104159937735
    Two-Electron Energy =                1703.7329730954745628
    DFT Exchange-Correlation Energy =     -89.7387877135021341
    Empirical Dispersion Energy =          -0.0134933146177206
    VV10 Nonlocal Energy =                  0.0000000000000000
    Total Energy =                      -1188.3312690113498320

Computation Completed


Properties will be evaluated at   0.000000,   0.000000,   0.000000 [a0]

Properties computed using the SCF density matrix

  Nuclear Dipole Moment: [e a0]
     X:    26.1395      Y:    -0.5372      Z:    -4.4020

  Electronic Dipole Moment: [e a0]
     X:   -22.8829      Y:     0.0948      Z:     3.8454

  Dipole Moment: [e a0]
     X:     3.2566      Y:    -0.4424      Z:    -0.5566     Total:     3.3333

  Dipole Moment: [D]
     X:     8.2775      Y:    -1.1246      Z:    -1.4148     Total:     8.4725


*** tstop() called on cpu-spot-dy-c5n2xlarge-1 at Tue Jun 22 07:43:32 2021
Module time:
	user time   =     636.72 seconds =      10.61 minutes
	system time =      10.50 seconds =       0.17 minutes
	total time  =         88 seconds =       1.47 minutes
Total time:
	user time   =     636.72 seconds =      10.61 minutes
	system time =      10.50 seconds =       0.17 minutes
	total time  =         88 seconds =       1.47 minutes


Properties will be evaluated at   0.000000,   0.000000,   0.000000 [a0]
OEProp: No title given, name of density matrix used for the following properties is 'SCF density'


  Wiberg Bond Indices using Orthogonal Lowdin Orbitals:

  Irrep: 1 Size: 23 x 23

                 1                   2                   3                   4                   5

    1     0.00000000000000     1.32021563589930     0.10114527363409     0.01320662291352     0.01316616126926
    2     1.32021563589930     0.00000000000000     0.88451364347377     0.11076309828793     0.11070603524114
    3     0.10114527363409     0.88451364347377     0.00000000000000     1.36006201348046     1.36028360614211
    4     0.01320662291352     0.11076309828793     1.36006201348046     0.00000000000000     0.13792024014575
    5     0.01316616126926     0.11070603524114     1.36028360614211     0.13792024014575     0.00000000000000
    6     0.03385860775652     0.07395897012475     0.89706399453534     0.10887826981135     0.10893150495246
    7     0.11655968509540     0.03546363016933     0.09947764907883     0.01336200920636     0.01334076669902
    8     0.01510384662307     0.00371548981221     0.01339323010148     0.00198541776263     0.00199899310926
    9     0.01439887818158     0.00535267509128     0.00252721917945     0.00037411078538     0.00037584207123
   10     0.01736877831548     0.00307433384511     0.00148450619293     0.00043722369143     0.00043146210075
   11     0.13430454846811     0.02687846240956     0.00432994358858     0.00058902921185     0.00059166314815
   12     1.19007703206277     0.09707557839623     0.03105875270449     0.00444617107183     0.00442189698047
   13     0.00288459802828     0.00103978357903     0.00071564539595     0.00028987926691     0.00029213420551
   14     0.00048026314709     0.00016765549172     0.00009050458349     0.00001930069801     0.00001747186466
   15     0.24822775795604     2.29095268989164     0.15068689449294     0.03936796196310     0.03936116454571
   16     0.00483150018598     0.01575038087794     0.16008272894027     0.04267846613907     0.04278226944329
   17     0.00071025867011     0.00022160547785     0.00047825522199     0.00006451629491     0.00006569408911
   18     0.00129689482560     0.00048665387545     0.00209092489826     0.00031006014442     0.00031015415243
   19     0.91329517948774     0.07322019239553     0.01369741660024     0.00169899431147     0.00169787291237
   20     0.02341655767133     0.00232821652189     0.00072982339194     0.00010964732150     0.00011195335954
   21     0.00009150258421     0.00004227866825     0.00002472971795     0.00000992065196     0.00000806861383
   22     0.00011389126185     0.00003873014156     0.00004371119880     0.00000672393791     0.00000650432415
   23     0.00007546906019     0.00002897215787     0.00001671312831     0.00000567204688     0.00000308975481

                 6                   7                   8                   9                  10

    1     0.03385860775652     0.11655968509540     0.01510384662307     0.01439887818158     0.01736877831548
    2     0.07395897012475     0.03546363016933     0.00371548981221     0.00535267509128     0.00307433384511
    3     0.89706399453534     0.09947764907883     0.01339323010148     0.00252721917945     0.00148450619293
    4     0.10887826981135     0.01336200920636     0.00198541776263     0.00037411078538     0.00043722369143
    5     0.10893150495246     0.01334076669902     0.00199899310926     0.00037584207123     0.00043146210075
    6     0.00000000000000     1.06908733461456     0.12097863416127     0.02063526679572     0.01515248600106
    7     1.06908733461456     0.00000000000000     1.34147208081619     0.13191080525591     0.10731195083375
    8     0.12097863416127     1.34147208081619     0.00000000000000     1.50515344692066     0.13593352759832
    9     0.02063526679572     0.13191080525591     1.50515344692066     0.00000000000000     1.37240476497987
   10     0.01515248600106     0.10731195083375     0.13593352759832     1.37240476497987     0.00000000000000
   11     0.01586681504313     0.11953868060698     0.12102625572244     0.12524322807492     1.41519025736619
   12     0.11437216814237     1.27329343811677     0.12404107483435     0.10719676663478     0.12948516915575
   13     0.00674582857554     0.02246002307208     0.02540658791267     0.14340870737988     1.31052035896354
   14     0.00032879042028     0.00160207801637     0.00433131744441     0.04578483253655     0.08126509829808
   15     0.01521870143937     0.00895496647824     0.00104283807765     0.00456364569125     0.00198890179712
   16     2.31249626774831     0.16635210583191     0.07551735554408     0.00633079144636     0.01636081469183
   17     0.00149385811126     0.01235439680119     0.08362875864865     0.86030059389439     0.07414150860561
   18     0.02014024101099     0.07683198387418     0.85230399912080     0.08071386134724     0.01215217441089
   19     0.00255838247128     0.01255053028828     0.00170996469022     0.00132709343637     0.00199113619836
   20     0.00169727162390     0.01148092608662     0.00556971564768     0.01255288073901     0.07565996415501
   21     0.00016640536319     0.00053899440620     0.00033289164644     0.00556085600539     0.00922339963436
   22     0.00013771512053     0.00077646313832     0.00207522962234     0.02216456863390     0.01997647273539
   23     0.00007299559624     0.00026586768467     0.00029009544638     0.00273339493116     0.01143661210526

                11                  12                  13                  14                  15

    1     0.13430454846811     1.19007703206277     0.00288459802828     0.00048026314709     0.24822775795604
    2     0.02687846240956     0.09707557839623     0.00103978357903     0.00016765549172     2.29095268989164
    3     0.00432994358858     0.03105875270449     0.00071564539595     0.00009050458349     0.15068689449294
    4     0.00058902921185     0.00444617107183     0.00028987926691     0.00001930069801     0.03936796196310
    5     0.00059166314815     0.00442189698047     0.00029213420551     0.00001747186466     0.03936116454571
    6     0.01586681504313     0.11437216814237     0.00674582857554     0.00032879042028     0.01521870143937
    7     0.11953868060698     1.27329343811677     0.02246002307208     0.00160207801637     0.00895496647824
    8     0.12102625572244     0.12404107483435     0.02540658791267     0.00433131744441     0.00104283807765
    9     0.12524322807492     0.10719676663478     0.14340870737988     0.04578483253655     0.00456364569125
   10     1.41519025736619     0.12948516915575     1.31052035896354     0.08126509829808     0.00198890179712
   11     0.00000000000000     1.39191874177588     0.18395980447322     0.01866841291405     0.01262203776169
   12     1.39191874177588     0.00000000000000     0.02613096231312     0.00315872441831     0.03052631297378
   13     0.18395980447322     0.02613096231312     0.00000000000000     1.24043729226432     0.00085590148459
   14     0.01866841291405     0.00315872441831     1.24043729226432     0.00000000000000     0.00010096171278
   15     0.01262203776169     0.03052631297378     0.00085590148459     0.00010096171278     0.00000000000000
   16     0.00483460573853     0.04165716821659     0.00712095872945     0.00026298628039     0.00535327363740
   17     0.01214851679359     0.00523347854020     0.02013911061348     0.02142771696317     0.00017086137202
   18     0.00529857133092     0.01198090237456     0.00217368387805     0.00043829670296     0.00019291819989
   19     0.02040311243964     0.06555540090060     0.00033811600737     0.00006801062414     0.02867427999684
   20     0.85008794738275     0.07797326880454     0.03298006086675     0.00261264044500     0.00067606158629
   21     0.00214877169546     0.00059532464444     0.06892144483532     0.94684331408025     0.00004327652740
   22     0.00227074568299     0.00053239253661     0.05762330037126     0.93223403290813     0.00002467724202
   23     0.00201558788491     0.00047146593915     0.07349803449771     0.94363035266082     0.00002041333330

                16                  17                  18                  19                  20

    1     0.00483150018598     0.00071025867011     0.00129689482560     0.91329517948774     0.02341655767133
    2     0.01575038087794     0.00022160547785     0.00048665387545     0.07322019239553     0.00232821652189
    3     0.16008272894027     0.00047825522199     0.00209092489826     0.01369741660024     0.00072982339194
    4     0.04267846613907     0.00006451629491     0.00031006014442     0.00169899431147     0.00010964732150
    5     0.04278226944329     0.00006569408911     0.00031015415243     0.00169787291237     0.00011195335954
    6     2.31249626774831     0.00149385811126     0.02014024101099     0.00255838247128     0.00169727162390
    7     0.16635210583191     0.01235439680119     0.07683198387418     0.01255053028828     0.01148092608662
    8     0.07551735554408     0.08362875864865     0.85230399912080     0.00170996469022     0.00556971564768
    9     0.00633079144636     0.86030059389439     0.08071386134724     0.00132709343637     0.01255288073901
   10     0.01636081469183     0.07414150860561     0.01215217441089     0.00199113619836     0.07565996415501
   11     0.00483460573853     0.01214851679359     0.00529857133092     0.02040311243964     0.85008794738275
   12     0.04165716821659     0.00523347854020     0.01198090237456     0.06555540090060     0.07797326880454
   13     0.00712095872945     0.02013911061348     0.00217368387805     0.00033811600737     0.03298006086675
   14     0.00026298628039     0.02142771696317     0.00043829670296     0.00006801062414     0.00261264044500
   15     0.00535327363740     0.00017086137202     0.00019291819989     0.02867427999684     0.00067606158629
   16     0.00000000000000     0.00038933921701     0.02100510790754     0.00051783486613     0.00060109233051
   17     0.00038933921701     0.00000000000000     0.01043861930497     0.00010659068902     0.00117667051006
   18     0.02100510790754     0.01043861930497     0.00000000000000     0.00061013806116     0.00047890579736
   19     0.00051783486613     0.00010659068902     0.00061013806116     0.00000000000000     0.00652336837340
   20     0.00060109233051     0.00117667051006     0.00047890579736     0.00652336837340     0.00000000000000
   21     0.00017617618207     0.00238043839637     0.00003457090907     0.00000925918680     0.00035586014846
   22     0.00012821648525     0.01270680717379     0.00015671858668     0.00001788520281     0.00052436797227
   23     0.00006448259494     0.00119105180071     0.00004720844356     0.00000801823092     0.00027289997283

                21                  22                  23

    1     0.00009150258421     0.00011389126185     0.00007546906019
    2     0.00004227866825     0.00003873014156     0.00002897215787
    3     0.00002472971795     0.00004371119880     0.00001671312831
    4     0.00000992065196     0.00000672393791     0.00000567204688
    5     0.00000806861383     0.00000650432415     0.00000308975481
    6     0.00016640536319     0.00013771512053     0.00007299559624
    7     0.00053899440620     0.00077646313832     0.00026586768467
    8     0.00033289164644     0.00207522962234     0.00029009544638
    9     0.00556085600539     0.02216456863390     0.00273339493116
   10     0.00922339963436     0.01997647273539     0.01143661210526
   11     0.00214877169546     0.00227074568299     0.00201558788491
   12     0.00059532464444     0.00053239253661     0.00047146593915
   13     0.06892144483532     0.05762330037126     0.07349803449771
   14     0.94684331408025     0.93223403290813     0.94363035266082
   15     0.00004327652740     0.00002467724202     0.00002041333330
   16     0.00017617618207     0.00012821648525     0.00006448259494
   17     0.00238043839637     0.01270680717379     0.00119105180071
   18     0.00003457090907     0.00015671858668     0.00004720844356
   19     0.00000925918680     0.00001788520281     0.00000801823092
   20     0.00035586014846     0.00052436797227     0.00027289997283
   21     0.00000000000000     0.03873820522818     0.04154529298287
   22     0.03873820522818     0.00000000000000     0.04272668859571
   23     0.04154529298287     0.04272668859571     0.00000000000000



  Atomic Valences: 

 #  #
 Irrep: 1
      1:  4.1648289
      2:  5.0559947
      3:  5.0839972
      4:  1.8365853
      5:  1.8368245
      6:  4.9398405
      7:  4.6349864
      8:  4.4370108
      9:  4.4710142
     10:  4.8129909
     11:  4.4699357
     12:  4.7312022
     13:  3.2279422
     14:  4.2439701
     15:  2.8796265
     16:  2.9252939
     17:  1.1209686
     18:  1.0994926
     19:  1.1465788
     20:  1.1079201
     21:  1.1177910
     22:  1.1330240
     23:  1.1204204


    Psi4 stopped on: Tuesday, 22 June 2021 07:43AM
    Psi4 wall time for execution: 0:01:27.98

*** Psi4 exiting successfully. Buy a developer a beer!
