
    -----------------------------------------------------------------------
          Psi4: An Open-Source Ab Initio Electronic Structure Package
                               Psi4 1.3.2 release

                         Git: Rev {HEAD} ecbda83 


    R. M. Parrish, L. A. Burns, D. G. A. Smith, A. C. Simmonett,
    A. E. DePrince III, E. G. Hohenstein, U. Bozkaya, A. Yu. Sokolov,
    R. Di Remigio, R. M. Richard, J. F. Gonthier, A. M. James,
    H. R. McAlexander, A. Kumar, M. Saitow, X. Wang, B. P. Pritchard,
    P. Verma, H. F. Schaefer III, K. Patkowski, R. A. King, E. F. Valeev,
    F. A. Evangelista, J. M. Turney, T. D. Crawford, and C. D. Sherrill,
    J. Chem. Theory Comput. 13(7) pp 3185--3197 (2017).
    (doi: 10.1021/acs.jctc.7b00174)


                         Additional Contributions by
    P. Kraus, H. Kruse, M. H. Lechner, M. C. Schieber, R. A. Shaw,
    A. Alenaizan, R. Galvelis, Z. L. Glick, S. Lehtola, and J. P. Misiewicz

    -----------------------------------------------------------------------


    Psi4 started on: Monday, 21 June 2021 10:23PM

    Process ID: 17791
    Host:       cpu-spot-dy-c5n2xlarge-1
    PSIDATADIR: /fsx/users/francis/anaconda3/envs/poltype-dev/share/psi4
    Memory:     500.0 MiB
    Threads:    1
    
  ==> Input File <==

--------------------------------------------------------------------------
molecule { 
0 1
 N   -1.006855   -1.477269    0.197895
 C   -2.293023   -1.155293    0.543752
 C   -2.646129    0.369139    0.525875
 F   -3.612352    0.556517   -0.436485
 F   -3.190730    0.685340    1.751256
 C   -1.477775    1.374591    0.237635
 C   -0.155491    0.806639   -0.112645
 C    0.929562    1.662849   -0.402540
 C    2.182631    1.146424   -0.755765
 C    2.386568   -0.258125   -0.819685
 C    1.310561   -1.113478   -0.495606
 C    0.050508   -0.600191   -0.142048
 S    3.915313   -1.058056   -1.233687
 C    5.216733    0.009393   -0.559916
 O   -3.094434   -2.032847    0.830678
 O   -1.671871    2.585675    0.283265
 H    2.982498    1.848386   -0.986565
 H    0.764132    2.739490   -0.353507
 H   -0.843773   -2.474729    0.217414
 H    1.456631   -2.194234   -0.526808
 H    5.215124    0.969453   -1.084095
 H    5.035204    0.169830    0.507607
 H    6.185001   -0.481565   -0.696989
}
set optking { 
  frozen_dihedral = ("
    11 10 13 14
    9 10 13 14
    21 14 13 10
  ")
}
set {
  geom_maxiter 400
  g_convergence GAU_LOOSE
  dynamic_level 1
}
memory 16GB
set_num_threads(8)
psi4_io.set_default_path("/scratch/Psi4-ligand")
for _ in range(1):
  try:
    set opt_coordinates both
    optimize('wb97x-d/6-31+G*')
    break
  except OptimizationConvergenceError:
    break
  else:
    try:
      set opt_coordinates cartesian
      optimize('wb97x-d/6-31+G*')
      break
    except OptimizationConvergenceError:
      pass
clean()
--------------------------------------------------------------------------

  Memory set to  14.901 GiB by Python driver.
  Threads set to 8 by Python driver.
gradient() will perform analytic gradient computation.

*** tstart() called on cpu-spot-dy-c5n2xlarge-1
*** at Mon Jun 21 22:23:18 2021

   => Loading Basis Set <=

    Name: 6-31+G*
    Role: ORBITAL
    Keyword: BASIS
    atoms 1             entry N          line   138 file /fsx/users/francis/anaconda3/envs/poltype-dev/share/psi4/basis/6-31pgs.gbs 
    atoms 2-3, 6-12, 14 entry C          line   119 file /fsx/users/francis/anaconda3/envs/poltype-dev/share/psi4/basis/6-31pgs.gbs 
    atoms 4-5           entry F          line   176 file /fsx/users/francis/anaconda3/envs/poltype-dev/share/psi4/basis/6-31pgs.gbs 
    atoms 13            entry S          line   344 file /fsx/users/francis/anaconda3/envs/poltype-dev/share/psi4/basis/6-31pgs.gbs 
    atoms 15-16         entry O          line   157 file /fsx/users/francis/anaconda3/envs/poltype-dev/share/psi4/basis/6-31pgs.gbs 
    atoms 17-23         entry H          line    46 file /fsx/users/francis/anaconda3/envs/poltype-dev/share/psi4/basis/6-31pgs.gbs 


         ---------------------------------------------------------
                                   SCF
               by Justin Turney, Rob Parrish, Andy Simmonett
                          and Daniel G. A. Smith
                              RKS Reference
                        8 Threads,  15258 MiB Core
         ---------------------------------------------------------

  ==> Geometry <==

    Molecular point group: c1
    Full point group: C1

    Geometry (in Angstrom), charge = 0, multiplicity = 1:

       Center              X                  Y                   Z               Mass       
    ------------   -----------------  -----------------  -----------------  -----------------
         N           -0.976423089142    -1.499513191884     0.282636340281    14.003074004430
         C           -2.262591089142    -1.177537191884     0.628493340281    12.000000000000
         C           -2.615697089142     0.346894808116     0.610616340281    12.000000000000
         F           -3.581920089142     0.534272808116    -0.351743659719    18.998403162730
         F           -3.160298089142     0.663095808116     1.835997340281    18.998403162730
         C           -1.447343089142     1.352346808116     0.322376340281    12.000000000000
         C           -0.125059089142     0.784394808116    -0.027903659719    12.000000000000
         C            0.959993910858     1.640604808116    -0.317798659719    12.000000000000
         C            2.213062910858     1.124179808116    -0.671023659719    12.000000000000
         C            2.416999910858    -0.280369191884    -0.734943659719    12.000000000000
         C            1.340992910858    -1.135722191884    -0.410864659719    12.000000000000
         C            0.080939910858    -0.622435191884    -0.057306659719    12.000000000000
         S            3.945744910858    -1.080300191884    -1.148945659719    31.972071174400
         C            5.247164910858    -0.012851191884    -0.475174659719    12.000000000000
         O           -3.064002089142    -2.055091191884     0.915419340281    15.994914619570
         O           -1.641439089142     2.563430808116     0.368006340281    15.994914619570
         H            3.012929910858     1.826141808116    -0.901823659719     1.007825032230
         H            0.794563910858     2.717245808116    -0.268765659719     1.007825032230
         H           -0.813341089142    -2.496973191884     0.302155340281     1.007825032230
         H            1.487062910858    -2.216478191884    -0.442066659719     1.007825032230
         H            5.245555910858     0.947208808116    -0.999353659719     1.007825032230
         H            5.065635910858     0.147585808116     0.592348340281     1.007825032230
         H            6.215432910858    -0.503809191884    -0.612247659719     1.007825032230

  Running in c1 symmetry.

  Rotational constants: A =      0.03800  B =      0.00814  C =      0.00704 [cm^-1]
  Rotational constants: A =   1139.13911  B =    243.94230  C =    211.06791 [MHz]
  Nuclear repulsion = 1175.291187098033561

  Charge       = 0
  Multiplicity = 1
  Electrons    = 124
  Nalpha       = 62
  Nbeta        = 62

  ==> Algorithm <==

  SCF Algorithm Type is DF.
  DIIS enabled.
  MOM disabled.
  Fractional occupation disabled.
  Guess Type is SAD.
  Energy threshold   = 1.00e-08
  Density threshold  = 1.00e-08
  Integral threshold = 0.00e+00

  ==> Primary Basis <==

  Basis Set: 6-31+G*
    Blend: 6-31+G*
    Number of shells: 144
    Number of basis function: 322
    Number of Cartesian functions: 322
    Spherical Harmonics?: false
    Max angular momentum: 2

  ==> DFT Potential <==

   => Composite Functional: WB97X-D <= 

    wB97X-D Hyb-GGA Exchange-Correlation Functional

    J.-D. Chai and M. Head-Gordon, Phys. Chem. Chem. Phys. 10, 6615 (2008)

    Deriv               =              1
    GGA                 =           TRUE
    Meta                =          FALSE

    Exchange Hybrid     =           TRUE
    MP2 Hybrid          =          FALSE

   => Exchange-Correlation Functionals <=

    1.0000   wB97D range-separated functional

   => Exact (HF) Exchange <=

    0.7780            HF,LR [omega = 0.2000]
    0.2220               HF 

   => Molecular Quadrature <=

    Radial Scheme          =       TREUTLER
    Pruning Scheme         =           FLAT
    Nuclear Scheme         =       TREUTLER

    BS radius alpha        =              1
    Pruning alpha          =              1
    Radial Points          =             75
    Spherical Points       =            302
    Total Points           =         520859
    Total Blocks           =           3866
    Max Points             =            256
    Max Functions          =            286

   => WB97X-D: Empirical Dispersion <=

    Chai and Head-Gordon Dispersion Correction
    Chai, J.-D.; Head-Gordon, M. (2010), J. Chem. Phys., 132: 6615-6620

        s6 =       1.000000

   => Loading Basis Set <=

    Name: (6-31+G* AUX)
    Role: JKFIT
    Keyword: DF_BASIS_SCF
    atoms 1             entry N          line   252 file /fsx/users/francis/anaconda3/envs/poltype-dev/share/psi4/basis/heavy-aug-cc-pvdz-jkfit.gbs 
    atoms 2-3, 6-12, 14 entry C          line   194 file /fsx/users/francis/anaconda3/envs/poltype-dev/share/psi4/basis/heavy-aug-cc-pvdz-jkfit.gbs 
    atoms 4-5           entry F          line   368 file /fsx/users/francis/anaconda3/envs/poltype-dev/share/psi4/basis/heavy-aug-cc-pvdz-jkfit.gbs 
    atoms 13            entry S          line   730 file /fsx/users/francis/anaconda3/envs/poltype-dev/share/psi4/basis/heavy-aug-cc-pvdz-jkfit.gbs 
    atoms 15-16         entry O          line   310 file /fsx/users/francis/anaconda3/envs/poltype-dev/share/psi4/basis/heavy-aug-cc-pvdz-jkfit.gbs 
    atoms 17-23         entry H          line   116 file /fsx/users/francis/anaconda3/envs/poltype-dev/share/psi4/basis/heavy-aug-cc-pvdz-jkfit.gbs 

  ==> Pre-Iterations <==

   -------------------------------------------------------
    Irrep   Nso     Nmo     Nalpha   Nbeta   Ndocc  Nsocc
   -------------------------------------------------------
     A        322     322       0       0       0       0
   -------------------------------------------------------
    Total     322     322      62      62      62       0
   -------------------------------------------------------

  ==> Integral Setup <==

  ==> DiskDFJK: Density-Fitted J/K Matrices <==

    J tasked:                  Yes
    K tasked:                  Yes
    wK tasked:                 Yes
    Omega:               2.000E-01
    OpenMP threads:              8
    Integrals threads:           8
    Memory [MiB]:             8448
    Algorithm:                Core
    Integral Cache:           NONE
    Schwarz Cutoff:          1E-12
    Fitting Condition:       1E-10

   => Auxiliary Basis Set <=

  Basis Set: (6-31+G* AUX)
    Blend: HEAVY-AUG-CC-PVDZ-JKFIT
    Number of shells: 523
    Number of basis function: 1840
    Number of Cartesian functions: 1840
    Spherical Harmonics?: false
    Max angular momentum: 3

  Cached 100.0% of DFT collocation blocks in 2.926 [GiB].

  Minimum eigenvalue in the overlap matrix is 5.6934414179E-07.
  Using Symmetric Orthogonalization.

  SCF Guess: Superposition of Atomic Densities via on-the-fly atomic UHF.

  ==> Iterations <==

                           Total Energy        Delta E     RMS |[F,P]|

   @DF-RKS iter SAD: -1187.21044010549713   -1.18721e+03   0.00000e+00 
   @DF-RKS iter   1: -1187.55631376160568   -3.45874e-01   3.36191e-03 DIIS
   @DF-RKS iter   2: -1187.56945918557176   -1.31454e-02   3.65862e-03 DIIS
   @DF-RKS iter   3: -1188.08564455574674   -5.16185e-01   7.95550e-04 DIIS
   @DF-RKS iter   4: -1188.11087091426703   -2.52264e-02   2.50917e-04 DIIS
   @DF-RKS iter   5: -1188.11402308482184   -3.15217e-03   7.02436e-05 DIIS
   @DF-RKS iter   6: -1188.11440466614249   -3.81581e-04   2.35699e-05 DIIS
   @DF-RKS iter   7: -1188.11446539921280   -6.07331e-05   1.00111e-05 DIIS
   @DF-RKS iter   8: -1188.11448288102861   -1.74818e-05   3.92257e-06 DIIS
   @DF-RKS iter   9: -1188.11448597155754   -3.09053e-06   2.24724e-06 DIIS
   @DF-RKS iter  10: -1188.11448635479451   -3.83237e-07   7.35113e-07 DIIS
   @DF-RKS iter  11: -1188.11448640797494   -5.31804e-08   3.13940e-07 DIIS
   @DF-RKS iter  12: -1188.11448641777520   -9.80026e-09   1.46142e-07 DIIS
   @DF-RKS iter  13: -1188.11448642023447   -2.45927e-09   5.58001e-08 DIIS
   @DF-RKS iter  14: -1188.11448642052551   -2.91038e-10   2.54280e-08 DIIS
   @DF-RKS iter  15: -1188.11448642058531   -5.97993e-11   1.22289e-08 DIIS
   @DF-RKS iter  16: -1188.11448642059554   -1.02318e-11   6.41424e-09 DIIS
  Energy and wave function converged.


  ==> Post-Iterations <==

    Orbital Energies [Eh]
    ---------------------

    Doubly Occupied:                                                      

       1A    -89.080642     2A    -24.875796     3A    -24.873046  
       4A    -19.307503     5A    -19.294598     6A    -14.543445  
       7A    -10.511760     8A    -10.459383     9A    -10.437396  
      10A    -10.411962    11A    -10.390852    12A    -10.356195  
      13A    -10.355654    14A    -10.355443    15A    -10.353791  
      16A    -10.348213    17A     -8.098122    18A     -6.048904  
      19A     -6.044443    20A     -6.038110    21A     -1.382728  
      22A     -1.326327    23A     -1.189811    24A     -1.176922  
      25A     -1.092926    26A     -0.999855    27A     -0.940030  
      28A     -0.904304    29A     -0.886881    30A     -0.868811  
      31A     -0.796551    32A     -0.764569    33A     -0.751596  
      34A     -0.743436    35A     -0.694276    36A     -0.679158  
      37A     -0.666990    38A     -0.644548    39A     -0.628787  
      40A     -0.589693    41A     -0.582150    42A     -0.565809  
      43A     -0.562477    44A     -0.556886    45A     -0.554463  
      46A     -0.551299    47A     -0.546415    48A     -0.537028  
      49A     -0.524947    50A     -0.517187    51A     -0.508343  
      52A     -0.499449    53A     -0.494142    54A     -0.482627  
      55A     -0.475501    56A     -0.441285    57A     -0.424998  
      58A     -0.396638    59A     -0.388922    60A     -0.369311  
      61A     -0.340521    62A     -0.321121  

    Virtual:                                                              

      63A     -0.049914    64A      0.010441    65A      0.039949  
      66A      0.045820    67A      0.052697    68A      0.063451  
      69A      0.067244    70A      0.074803    71A      0.079904  
      72A      0.089663    73A      0.091676    74A      0.096037  
      75A      0.104126    76A      0.111509    77A      0.113110  
      78A      0.116892    79A      0.120572    80A      0.132549  
      81A      0.133948    82A      0.141213    83A      0.143305  
      84A      0.152584    85A      0.156164    86A      0.158828  
      87A      0.168219    88A      0.171791    89A      0.174673  
      90A      0.178857    91A      0.184532    92A      0.188356  
      93A      0.195387    94A      0.197110    95A      0.198411  
      96A      0.208152    97A      0.210695    98A      0.214439  
      99A      0.220335   100A      0.230260   101A      0.234011  
     102A      0.240644   103A      0.240959   104A      0.244839  
     105A      0.246552   106A      0.252493   107A      0.256584  
     108A      0.262762   109A      0.263174   110A      0.264227  
     111A      0.276780   112A      0.278016   113A      0.284156  
     114A      0.286537   115A      0.297360   116A      0.299584  
     117A      0.305705   118A      0.311014   119A      0.314341  
     120A      0.319422   121A      0.323292   122A      0.329299  
     123A      0.334104   124A      0.340645   125A      0.351405  
     126A      0.359411   127A      0.361074   128A      0.372374  
     129A      0.375908   130A      0.384369   131A      0.389460  
     132A      0.392079   133A      0.396358   134A      0.401491  
     135A      0.411646   136A      0.417236   137A      0.423164  
     138A      0.432414   139A      0.445113   140A      0.447301  
     141A      0.457445   142A      0.465648   143A      0.477632  
     144A      0.482013   145A      0.502966   146A      0.507701  
     147A      0.522083   148A      0.528841   149A      0.534905  
     150A      0.548244   151A      0.561010   152A      0.573903  
     153A      0.587185   154A      0.599300   155A      0.605434  
     156A      0.632504   157A      0.659149   158A      0.670188  
     159A      0.677877   160A      0.690771   161A      0.722739  
     162A      0.743496   163A      0.744605   164A      0.751143  
     165A      0.770532   166A      0.775305   167A      0.785352  
     168A      0.800423   169A      0.802634   170A      0.811005  
     171A      0.825849   172A      0.848338   173A      0.865457  
     174A      0.876792   175A      0.883299   176A      0.892853  
     177A      0.901564   178A      0.913639   179A      0.928881  
     180A      0.934841   181A      0.957340   182A      0.962560  
     183A      0.973425   184A      0.986418   185A      1.007754  
     186A      1.027185   187A      1.046480   188A      1.054996  
     189A      1.077377   190A      1.078941   191A      1.082026  
     192A      1.095004   193A      1.111840   194A      1.144097  
     195A      1.150470   196A      1.170030   197A      1.190292  
     198A      1.197473   199A      1.204537   200A      1.223356  
     201A      1.230025   202A      1.241263   203A      1.263313  
     204A      1.280995   205A      1.294717   206A      1.319190  
     207A      1.321364   208A      1.334109   209A      1.341331  
     210A      1.384969   211A      1.395555   212A      1.403818  
     213A      1.410002   214A      1.416808   215A      1.421104  
     216A      1.442727   217A      1.452067   218A      1.461866  
     219A      1.468071   220A      1.481288   221A      1.496732  
     222A      1.512895   223A      1.523435   224A      1.529912  
     225A      1.551756   226A      1.594718   227A      1.617113  
     228A      1.651370   229A      1.661947   230A      1.670388  
     231A      1.706152   232A      1.746156   233A      1.754607  
     234A      1.757045   235A      1.762594   236A      1.766666  
     237A      1.774458   238A      1.781691   239A      1.786940  
     240A      1.817223   241A      1.838121   242A      1.862294  
     243A      1.871899   244A      1.891586   245A      1.898366  
     246A      1.909195   247A      1.919000   248A      1.944994  
     249A      1.961594   250A      1.967153   251A      1.970933  
     252A      2.004255   253A      2.038047   254A      2.044640  
     255A      2.054765   256A      2.059655   257A      2.075559  
     258A      2.089600   259A      2.098539   260A      2.111837  
     261A      2.143127   262A      2.151286   263A      2.164690  
     264A      2.196324   265A      2.205084   266A      2.208721  
     267A      2.244042   268A      2.254114   269A      2.261151  
     270A      2.276994   271A      2.301020   272A      2.307895  
     273A      2.322933   274A      2.332868   275A      2.349747  
     276A      2.364595   277A      2.381898   278A      2.402395  
     279A      2.460528   280A      2.465710   281A      2.508259  
     282A      2.511970   283A      2.565562   284A      2.625335  
     285A      2.655178   286A      2.673613   287A      2.703307  
     288A      2.725256   289A      2.735130   290A      2.765418  
     291A      2.773691   292A      2.821919   293A      2.824530  
     294A      2.850837   295A      2.895555   296A      2.943494  
     297A      2.960875   298A      3.027114   299A      3.111348  
     300A      3.152987   301A      3.214530   302A      3.237569  
     303A      3.335257   304A      3.376769   305A      3.460978  
     306A      3.481024   307A      4.034751   308A      4.277186  
     309A      4.305102   310A      4.333210   311A      4.359174  
     312A      4.372089   313A      4.409284   314A      4.465598  
     315A      4.482568   316A      4.519250   317A      4.577598  
     318A      4.775756   319A      4.831684   320A      5.097418  
     321A      5.710895   322A      7.113653  

    Final Occupation by Irrep:
              A 
    DOCC [    62 ]

  @DF-RKS Final Energy: -1188.11448642059554

   => Energetics <=

    Nuclear Repulsion Energy =           1175.2911870980335607
    One-Electron Energy =               -3964.6377823669590725
    Two-Electron Energy =                1690.6877442733996304
    DFT Exchange-Correlation Energy =     -89.4420803564782432
    Empirical Dispersion Energy =          -0.0135550685910677
    VV10 Nonlocal Energy =                  0.0000000000000000
    Total Energy =                      -1188.1144864205955400

Computation Completed


Properties will be evaluated at   0.000000,   0.000000,   0.000000 [a0]

Properties computed using the SCF density matrix

  Nuclear Dipole Moment: [e a0]
     X:    26.1389      Y:    -0.7567      Z:    -3.6092

  Electronic Dipole Moment: [e a0]
     X:   -23.0516      Y:     0.4054      Z:     3.2110

  Dipole Moment: [e a0]
     X:     3.0872      Y:    -0.3513      Z:    -0.3983     Total:     3.1326

  Dipole Moment: [D]
     X:     7.8470      Y:    -0.8928      Z:    -1.0123     Total:     7.9622


*** tstop() called on cpu-spot-dy-c5n2xlarge-1 at Mon Jun 21 22:24:32 2021
Module time:
	user time   =     554.25 seconds =       9.24 minutes
	system time =      10.45 seconds =       0.17 minutes
	total time  =         74 seconds =       1.23 minutes
Total time:
	user time   =     554.25 seconds =       9.24 minutes
	system time =      10.45 seconds =       0.17 minutes
	total time  =         74 seconds =       1.23 minutes

*** tstart() called on cpu-spot-dy-c5n2xlarge-1
*** at Mon Jun 21 22:24:32 2021


         ------------------------------------------------------------
                                   SCF GRAD                          
                          Rob Parrish, Justin Turney,                
                       Andy Simmonett, and Alex Sokolov              
         ------------------------------------------------------------

  ==> Geometry <==

    Molecular point group: c1
    Full point group: C1

    Geometry (in Angstrom), charge = 0, multiplicity = 1:

       Center              X                  Y                   Z               Mass       
    ------------   -----------------  -----------------  -----------------  -----------------
         N           -0.976423089142    -1.499513191884     0.282636340281    14.003074004430
         C           -2.262591089142    -1.177537191884     0.628493340281    12.000000000000
         C           -2.615697089142     0.346894808116     0.610616340281    12.000000000000
         F           -3.581920089142     0.534272808116    -0.351743659719    18.998403162730
         F           -3.160298089142     0.663095808116     1.835997340281    18.998403162730
         C           -1.447343089142     1.352346808116     0.322376340281    12.000000000000
         C           -0.125059089142     0.784394808116    -0.027903659719    12.000000000000
         C            0.959993910858     1.640604808116    -0.317798659719    12.000000000000
         C            2.213062910858     1.124179808116    -0.671023659719    12.000000000000
         C            2.416999910858    -0.280369191884    -0.734943659719    12.000000000000
         C            1.340992910858    -1.135722191884    -0.410864659719    12.000000000000
         C            0.080939910858    -0.622435191884    -0.057306659719    12.000000000000
         S            3.945744910858    -1.080300191884    -1.148945659719    31.972071174400
         C            5.247164910858    -0.012851191884    -0.475174659719    12.000000000000
         O           -3.064002089142    -2.055091191884     0.915419340281    15.994914619570
         O           -1.641439089142     2.563430808116     0.368006340281    15.994914619570
         H            3.012929910858     1.826141808116    -0.901823659719     1.007825032230
         H            0.794563910858     2.717245808116    -0.268765659719     1.007825032230
         H           -0.813341089142    -2.496973191884     0.302155340281     1.007825032230
         H            1.487062910858    -2.216478191884    -0.442066659719     1.007825032230
         H            5.245555910858     0.947208808116    -0.999353659719     1.007825032230
         H            5.065635910858     0.147585808116     0.592348340281     1.007825032230
         H            6.215432910858    -0.503809191884    -0.612247659719     1.007825032230

  Nuclear repulsion = 1175.291187098033561

  ==> Basis Set <==

  Basis Set: 6-31+G*
    Blend: 6-31+G*
    Number of shells: 144
    Number of basis function: 322
    Number of Cartesian functions: 322
    Spherical Harmonics?: false
    Max angular momentum: 2

  ==> DFJKGrad: Density-Fitted SCF Gradients <==

    Gradient:                    1
    J tasked:                  Yes
    K tasked:                  Yes
    wK tasked:                 Yes
    Omega:               2.000E-01
    OpenMP threads:              8
    Integrals threads:           8
    Memory [MiB]:            11444
    Schwarz Cutoff:          0E+00
    Fitting Condition:       1E-10

   => Auxiliary Basis Set <=

  Basis Set: (6-31+G* AUX)
    Blend: HEAVY-AUG-CC-PVDZ-JKFIT
    Number of shells: 523
    Number of basis function: 1840
    Number of Cartesian functions: 1840
    Spherical Harmonics?: false
    Max angular momentum: 3

  ==> DFT Potential <==

   => Composite Functional: WB97X-D <= 

    wB97X-D Hyb-GGA Exchange-Correlation Functional

    J.-D. Chai and M. Head-Gordon, Phys. Chem. Chem. Phys. 10, 6615 (2008)

    Deriv               =              1
    GGA                 =           TRUE
    Meta                =          FALSE

    Exchange Hybrid     =           TRUE
    MP2 Hybrid          =          FALSE

   => Exchange-Correlation Functionals <=

    1.0000   wB97D range-separated functional

   => Exact (HF) Exchange <=

    0.7780            HF,LR [omega = 0.2000]
    0.2220               HF 

   => Molecular Quadrature <=

    Radial Scheme          =       TREUTLER
    Pruning Scheme         =           FLAT
    Nuclear Scheme         =       TREUTLER

    BS radius alpha        =              1
    Pruning alpha          =              1
    Radial Points          =             75
    Spherical Points       =            302
    Total Points           =         520859
    Total Blocks           =           3866
    Max Points             =            256
    Max Functions          =            286


  -Total Gradient:
     Atom            X                  Y                   Z
    ------   -----------------  -----------------  -----------------
       1       -0.008641435192    -0.011099410767     0.003602362497
       2        0.007616317468     0.011895800258    -0.002734945740
       3        0.012137039567    -0.003966316019    -0.006297345050
       4       -0.011847606230     0.002392672036    -0.011994524804
       5       -0.007471538271     0.004753233566     0.018502859827
       6       -0.006982945110    -0.022622796649     0.002639258397
       7       -0.002521409040     0.008576681602    -0.001807231133
       8       -0.003101822780     0.012710809125     0.002283133729
       9        0.006075418459     0.003376660454    -0.001581513918
      10        0.011161644447    -0.008351834819    -0.012737193864
      11        0.004091540994    -0.003585460900     0.001804436132
      12        0.000957239716    -0.007186021557     0.002345578392
      13        0.001170905047     0.006987851483     0.005411161309
      14        0.009068699485    -0.010021725701    -0.003122637237
      15       -0.007884552885    -0.021923360233     0.003591687773
      16        0.004005322164     0.029872882536    -0.001557748554
      17        0.000575342431     0.003739389513    -0.000267747441
      18       -0.000500764040     0.003737651510     0.000661379007
      19       -0.003898667799     0.001668294322     0.001354259719
      20       -0.000414331567    -0.002847363103    -0.001552713496
      21       -0.004148104363     0.000305175341    -0.001437073141
      22       -0.002549597247    -0.000609096225     0.000888907261
      23        0.003832976640     0.001783110987     0.001811164346


*** tstop() called on cpu-spot-dy-c5n2xlarge-1 at Mon Jun 21 22:24:55 2021
Module time:
	user time   =     147.41 seconds =       2.46 minutes
	system time =       3.61 seconds =       0.06 minutes
	total time  =         23 seconds =       0.38 minutes
Total time:
	user time   =     701.66 seconds =      11.69 minutes
	system time =      14.06 seconds =       0.23 minutes
	total time  =         97 seconds =       1.62 minutes

			-----------------------------------------
			 OPTKING 2.0: for geometry optimizations 
			  - R.A. King,  Bethel University        
			-----------------------------------------
	At level 1: Red. Int., RFO, no backsteps, dynamic trust

	Internal coordinates to be generated automatically.
	Detected frag 1 with atoms:  1 2 3 4 5 6 7 8 9 10 11 12 13 14 15 16 17 18 19 20
	 21 22 23
	---Fragment 1 Bond Connectivity---
	 1 : 2 12 19
	 2 : 1 3 15
	 3 : 2 4 5 6
	 4 : 3
	 5 : 3
	 6 : 3 7 16
	 7 : 6 8 12
	 8 : 7 9 18
	 9 : 8 10 17
	 10 : 9 11 13
	 11 : 10 12 20
	 12 : 1 7 11
	 13 : 10 14
	 14 : 13 21 22 23
	 15 : 2
	 16 : 6
	 17 : 9
	 18 : 8
	 19 : 1
	 20 : 11
	 21 : 14
	 22 : 14
	 23 : 14

	Assuming in current code that numbering for constraints corresponds to unified fragment.
	Frozen dihedral atom list: 
	    11    10    13    14
	     9    10    13    14
	    21    14    13    10
	---Fragment 1 Geometry and Gradient---
	 N          -1.8451722211       -2.8336692542        0.5341052762
	 C          -4.2756774924       -2.2252227952        1.1876802848
	 C          -4.9429511256        0.6555361817        1.1538976509
	 F          -6.7688479718        1.0096292836       -0.6646991832
	 F          -5.9720978633        1.2530694723        3.4695321402
	 C          -2.7350820481        2.5555650940        0.6092029925
	 C          -0.2363274280        1.4822913616       -0.0527302748
	 C           1.8141255736        3.1002937674       -0.6005524299
	 C           4.1820827999        2.1243919531       -1.2680509406
	 C           4.5674678768       -0.5298209867       -1.3888422345
	 C           2.5341093377       -2.1462038973       -0.7764216815
	 C           0.1529542641       -1.1762320435       -0.1082938920
	 S           7.4563772424       -2.0414714959       -2.1711926299
	 C           9.9157046166       -0.0242852330       -0.8979499686
	 O          -5.7901247963       -3.8835595155        1.7298918431
	 O          -3.1018703301        4.8441821689        0.6954311956
	 H           5.6936123667        3.4509078836       -1.7041997303
	 H           1.5015081807        5.1348503929       -0.5078934888
	 H          -1.5369919051       -4.7185954753        0.5709908405
	 H           2.8101416328       -4.1885367457       -0.8353849161
	 H           9.9126640473        1.7899652310       -1.8885047193
	 H           9.5726645228        0.2788967573        1.1193761340
	 H          11.7454659527       -0.9520613921       -1.1569803978
	            -0.0086414352       -0.0110994108        0.0036023625
	             0.0076163175        0.0118958003       -0.0027349457
	             0.0121370396       -0.0039663160       -0.0062973450
	            -0.0118476062        0.0023926720       -0.0119945248
	            -0.0074715383        0.0047532336        0.0185028598
	            -0.0069829451       -0.0226227966        0.0026392584
	            -0.0025214090        0.0085766816       -0.0018072311
	            -0.0031018228        0.0127108091        0.0022831337
	             0.0060754185        0.0033766605       -0.0015815139
	             0.0111616444       -0.0083518348       -0.0127371939
	             0.0040915410       -0.0035854609        0.0018044361
	             0.0009572397       -0.0071860216        0.0023455784
	             0.0011709050        0.0069878515        0.0054111613
	             0.0090686995       -0.0100217257       -0.0031226372
	            -0.0078845529       -0.0219233602        0.0035916878
	             0.0040053222        0.0298728825       -0.0015577486
	             0.0005753424        0.0037393895       -0.0002677474
	            -0.0005007640        0.0037376515        0.0006613790
	            -0.0038986678        0.0016682943        0.0013542597
	            -0.0004143316       -0.0028473631       -0.0015527135
	            -0.0041481044        0.0003051753       -0.0014370731
	            -0.0025495972       -0.0006090962        0.0008889073
	             0.0038329766        0.0017831110        0.0018111643

	Previous optimization step data not found.  Starting new optimization.

	---Fragment 1 Intrafragment Coordinates---
	 - Coordinate -           - BOHR/RAD -       - ANG/DEG -
	 R(1,2)           =         2.589348	       1.370224
	 R(1,12)          =         2.674375	       1.415219
	 R(1,19)          =         1.910310	       1.010892
	 R(2,3)           =         2.957223	       1.564895
	 R(2,15)          =         2.310330	       1.222574
	 R(3,4)           =         2.601264	       1.376530
	 R(3,5)           =         2.603527	       1.377727
	 R(3,6)           =         2.963358	       1.568141
	 R(6,7)           =         2.798901	       1.481115
	 R(6,16)          =         2.319426	       1.227387
	 R(7,8)           =         2.668782	       1.412259
	 R(7,12)          =         2.687448	       1.422136
	 R(8,9)           =         2.646726	       1.400587
	 R(8,18)          =         2.060518	       1.090379
	 R(9,10)          =         2.684764	       1.420716
	 R(9,17)          =         2.057812	       1.088947
	 R(10,11)         =         2.668764	       1.412249
	 R(10,13)         =         3.353052	       1.774359
	 R(11,12)         =         2.656528	       1.405774
	 R(11,20)         =         2.061745	       1.091029
	 R(13,14)         =         3.426146	       1.813039
	 R(14,21)         =         2.067054	       1.093838
	 R(14,22)         =         2.068623	       1.094668
	 R(14,23)         =         2.067823	       1.094245
	 B(1,2,3)         =         2.023970	     115.964955
	 B(1,2,15)        =         2.101186	     120.389110
	 B(1,12,7)        =         2.094264	     119.992504
	 B(1,12,11)       =         2.098807	     120.252778
	 B(2,1,12)        =         2.234840	     128.046884
	 B(2,1,19)        =         1.958877	     112.235412
	 B(2,3,4)         =         1.874414	     107.396019
	 B(2,3,5)         =         1.878224	     107.614323
	 B(2,3,6)         =         2.047192	     117.295482
	 B(3,2,15)        =         2.157961	     123.642044
	 B(3,6,7)         =         2.051906	     117.565545
	 B(3,6,16)        =         2.103661	     120.530891
	 B(4,3,5)         =         1.889259	     108.246593
	 B(4,3,6)         =         1.883036	     107.890025
	 B(5,3,6)         =         1.886875	     108.109998
	 B(6,7,8)         =         2.096686	     120.131283
	 B(6,7,12)        =         2.110106	     120.900146
	 B(7,6,16)        =         2.127441	     121.893396
	 B(7,8,9)         =         2.112518	     121.038371
	 B(7,8,18)        =         2.063301	     118.218417
	 B(7,12,11)       =         2.090053	     119.751188
	 B(8,7,12)        =         2.076256	     118.960705
	 B(8,9,10)        =         2.099364	     120.284724
	 B(8,9,17)        =         2.063414	     118.224890
	 B(9,8,18)        =         2.107323	     120.740703
	 B(9,10,11)       =         2.070405	     118.625466
	 B(9,10,13)       =         2.189366	     125.441457
	 B(10,9,17)       =         2.120359	     121.487626
	 B(10,11,12)      =         2.117062	     121.298726
	 B(10,11,20)      =         2.084487	     119.432322
	 B(10,13,14)      =         1.840358	     105.444755
	 B(11,10,13)      =         2.022984	     115.908455
	 B(12,1,19)       =         2.089343	     119.710555
	 B(12,11,20)      =         2.081610	     119.267466
	 B(13,14,21)      =         1.915176	     109.731524
	 B(13,14,22)      =         1.906746	     109.248470
	 B(13,14,23)      =         1.901235	     108.932744
	 B(21,14,22)      =         1.916061	     109.782237
	 B(21,14,23)      =         1.912478	     109.576903
	 B(22,14,23)      =         1.912039	     109.551749
	 D(1,2,3,4)       =         2.034196	     116.550825
	 D(1,2,3,5)       =        -2.218439	    -127.107211
	 D(1,2,3,6)       =        -0.088056	      -5.045256
	 D(1,12,7,6)      =        -0.027095	      -1.552439
	 D(1,12,7,8)      =         3.096713	     177.428574
	 D(1,12,11,10)    =        -3.125200	    -179.060793
	 D(1,12,11,20)    =         0.024178	       1.385322
	 D(2,1,12,7)      =         0.031250	       1.790500
	 D(2,1,12,11)     =        -3.122300	    -178.894640
	 D(2,3,6,7)       =         0.091161	       5.223144
	 D(2,3,6,16)      =        -3.070298	    -175.915102
	 D(3,2,1,12)      =         0.029315	       1.679614
	 D(3,2,1,19)      =        -3.129521	    -179.308335
	 D(3,6,7,8)       =         3.124860	     179.041314
	 D(3,6,7,12)      =        -0.034724	      -1.989543
	 D(4,3,2,15)      =        -1.094887	     -62.732418
	 D(4,3,6,7)       =        -2.026610	    -116.116221
	 D(4,3,6,16)      =         1.095116	      62.745533
	 D(5,3,2,15)      =         0.935663	      53.609546
	 D(5,3,6,7)       =         2.217071	     127.028806
	 D(5,3,6,16)      =        -0.944388	     -54.109439
	 D(6,3,2,15)      =         3.066046	     175.671501
	 D(6,7,8,9)       =        -3.124486	    -179.019876
	 D(6,7,8,18)      =         0.007121	       0.408031
	 D(6,7,12,11)     =         3.126395	     179.129246
	 D(7,8,9,10)      =        -0.007655	      -0.438604
	 D(7,8,9,17)      =         3.123547	     178.966058
	 D(7,12,1,19)     =        -3.091966	    -177.156598
	 D(7,12,11,10)    =         0.004463	       0.255723
	 D(7,12,11,20)    =        -3.129343	    -179.298162
	 D(8,7,6,16)      =         0.003422	       0.196082
	 D(8,7,12,11)     =        -0.032982	      -1.889741
	 D(8,9,10,11)     =        -0.021048	      -1.205957
	 D(8,9,10,13)     =        -3.129761	    -179.322110
	 D(9,8,7,12)      =         0.034751	       1.991082
	 D(9,10,11,12)    =         0.022607	       1.295277
	 D(9,10,11,20)    =        -3.126785	    -179.151560
	*D(9,10,13,14)    =         0.595376	      34.112535
	 D(10,9,8,18)     =        -3.139011	    -179.852091
	*D(10,13,14,21)   =        -1.144634	     -65.582691
	 D(10,13,14,22)   =         0.956809	      54.821128
	 D(10,13,14,23)   =         3.044892	     174.459480
	 D(11,10,9,17)    =         3.131281	     179.409170
	*D(11,10,13,14)   =        -2.514132	    -144.049130
	 D(11,12,1,19)    =         0.037669	       2.158263
	 D(12,1,2,15)     =        -3.124351	    -179.012136
	 D(12,7,6,16)     =         3.127023	     179.165225
	 D(12,7,8,18)     =        -3.116827	    -178.581012
	 D(12,11,10,13)   =         3.134420	     179.589054
	 D(13,10,9,17)    =         0.022567	       1.293017
	 D(13,10,11,20)   =        -0.014971	      -0.857783
	 D(15,2,1,19)     =        -0.000000	      -0.000000
	 D(17,9,8,18)     =        -0.007809	      -0.447429

	Current energy   :     -1188.1144864206

	Generating empirical Hessian (Schlegel '84) for each fragment.
	Taking RFO optimization step.
	Going to follow RFO solution 1.
	Using RFO vector 1.
	Norm of target step-size    0.22091
	Projected energy change by RFO approximation:        -0.0111515473

	Back-transformation to cartesian coordinates...
	Successfully converged to displaced geometry.

	Back-transformation to cartesian coordinates to adjust frozen coordinates...
	Successfully converged to displaced geometry.

	--- Internal Coordinate Step in ANG or DEG, aJ/ANG or AJ/DEG ---
	 ---------------------------------------------------------------------------
	   Coordinate                Previous        Force       Change         New 
	   ----------                --------       ------       ------       ------
	    1 R(1,2)          =      1.370224    -0.009430    -0.001109     1.369115
	    2 R(1,12)         =      1.415219    -0.129283    -0.019077     1.396141
	    3 R(1,19)         =      1.010892     0.018733     0.002553     1.013446
	    4 R(2,3)          =      1.564895    -0.097403    -0.021698     1.543197
	    5 R(2,15)         =      1.222574    -0.179237    -0.012048     1.210526
	    6 R(3,4)          =      1.376530    -0.140555    -0.017687     1.358843
	    7 R(3,5)          =      1.377727    -0.169001    -0.021360     1.356367
	    8 R(3,6)          =      1.568141    -0.090340    -0.020452     1.547689
	    9 R(6,7)          =      1.481115    -0.072671    -0.013246     1.467869
	   10 R(6,16)         =      1.227387    -0.237355    -0.016308     1.211079
	   11 R(7,8)          =      1.412259    -0.105832    -0.015258     1.397001
	   12 R(7,12)         =      1.422136    -0.125865    -0.019231     1.402905
	   13 R(8,9)          =      1.400587    -0.135820    -0.018708     1.381880
	   14 R(8,18)         =      1.090379    -0.031443    -0.005599     1.084780
	   15 R(9,10)         =      1.420716    -0.136651    -0.020051     1.400665
	   16 R(9,17)         =      1.088947    -0.023691    -0.004199     1.084748
	   17 R(10,11)        =      1.412249    -0.111945    -0.015863     1.396386
	   18 R(10,13)        =      1.774359    -0.049675    -0.010799     1.763559
	   19 R(11,12)        =      1.405774    -0.124438    -0.017307     1.388467
	   20 R(11,20)        =      1.091029    -0.022985    -0.004102     1.086927
	   21 R(13,14)        =      1.813039     0.010495     0.002552     1.815590
	   22 R(14,21)        =      1.093838    -0.007944    -0.001430     1.092408
	   23 R(14,22)        =      1.094668    -0.010169    -0.001836     1.092832
	   24 R(14,23)        =      1.094245    -0.019174    -0.003457     1.090788
	   25 B(1,2,3)        =    115.964955    -0.000076    -0.102764   115.862191
	   26 B(1,2,15)       =    120.389110     0.000834     2.334013   122.723123
	   27 B(1,12,7)       =    119.992504     0.000239     0.486193   120.478697
	   28 B(1,12,11)      =    120.252778    -0.000388    -1.012177   119.240601
	   29 B(2,1,12)       =    128.046884    -0.000178    -0.636804   127.410080
	   30 B(2,1,19)       =    112.235412     0.000369     1.538163   113.773575
	   31 B(2,3,4)        =    107.396019    -0.000032    -0.227868   107.168150
	   32 B(2,3,5)        =    107.614323    -0.000025    -0.043497   107.570826
	   33 B(2,3,6)        =    117.295482     0.000073     0.505418   117.800900
	   34 B(3,2,15)       =    123.642044    -0.000757    -2.229781   121.412264
	   35 B(3,6,7)        =    117.565545    -0.000134    -0.330366   117.235180
	   36 B(3,6,16)       =    120.530891    -0.000730    -2.109966   118.420925
	   37 B(4,3,5)        =    108.246593    -0.000017    -0.236310   108.010283
	   38 B(4,3,6)        =    107.890025    -0.000017    -0.148290   107.741736
	   39 B(5,3,6)        =    108.109998     0.000011     0.092924   108.202921
	   40 B(6,7,8)        =    120.131283    -0.000042    -0.032580   120.098703
	   41 B(6,7,12)       =    120.900146     0.000079     0.097905   120.998051
	   42 B(7,6,16)       =    121.893396     0.000865     2.447099   124.340495
	   43 B(7,8,9)        =    121.038371     0.000042     0.097945   121.136316
	   44 B(7,8,18)       =    118.218417    -0.000014    -0.029319   118.189098
	   45 B(7,12,11)      =    119.751188     0.000149     0.508752   120.259940
	   46 B(8,7,12)       =    118.960705    -0.000036    -0.059277   118.901428
	   47 B(8,9,10)       =    120.284724    -0.000174    -0.554936   119.729788
	   48 B(8,9,17)       =    118.224890     0.000281     1.123770   119.348661
	   49 B(9,8,18)       =    120.740703    -0.000027    -0.067556   120.673147
	   50 B(9,10,11)      =    118.625466     0.000361     1.066371   119.691837
	   51 B(9,10,13)      =    125.441457    -0.000606    -1.750503   123.690954
	   52 B(10,9,17)      =    121.487626    -0.000108    -0.572090   120.915536
	   53 B(10,11,12)     =    121.298726    -0.000341    -1.055494   120.243232
	   54 B(10,11,20)     =    119.432322     0.000140     0.368556   119.800878
	   55 B(10,13,14)     =    105.444755    -0.001441    -4.127343   101.317412
	   56 B(11,10,13)     =    115.908455     0.000245     0.683494   116.591949
	   57 B(12,1,19)      =    119.710555    -0.000191    -0.902151   118.808405
	   58 B(12,11,20)     =    119.267466     0.000201     0.688186   119.955651
	   59 B(13,14,21)     =    109.731524     0.000518     2.408558   112.140082
	   60 B(13,14,22)     =    109.248470     0.000284     1.249919   110.498389
	   61 B(13,14,23)     =    108.932744    -0.000619    -3.033062   105.899682
	   62 B(21,14,22)     =    109.782237    -0.000187     0.032772   109.815009
	   63 B(21,14,23)     =    109.576903    -0.000001    -0.541728   109.035176
	   64 B(22,14,23)     =    109.551749     0.000002    -0.207328   109.344421
	   65 D(1,2,3,4)      =    116.550825     0.000004     0.105645   116.656470
	   66 D(1,2,3,5)      =   -127.107211    -0.000007    -0.306305  -127.413516
	   67 D(1,2,3,6)      =     -5.045256     0.000004     0.137852    -4.907405
	   68 D(1,12,7,6)     =     -1.552439     0.000002     0.195267    -1.357172
	   69 D(1,12,7,8)     =    177.428574     0.000007     0.724249   178.152823
	   70 D(1,12,11,10)   =   -179.060793    -0.000008    -0.728335  -179.789128
	   71 D(1,12,11,20)   =      1.385322    -0.000011    -0.996270     0.389052
	   72 D(2,1,12,7)     =      1.790500    -0.000003    -0.263132     1.527368
	   73 D(2,1,12,11)    =   -178.894640    -0.000010    -1.231040  -180.125679
	   74 D(2,3,6,7)      =      5.223144    -0.000004    -0.184562     5.038581
	   75 D(2,3,6,16)     =   -175.915102     0.000001     0.312182  -175.602919
	   76 D(3,2,1,12)     =      1.679614    -0.000001     0.066912     1.746526
	   77 D(3,2,1,19)     =   -179.308335    -0.000001     0.007590  -179.300745
	   78 D(3,6,7,8)      =    179.041314    -0.000004    -0.506028   178.535286
	   79 D(3,6,7,12)     =     -1.989543     0.000001     0.028996    -1.960547
	   80 D(4,3,2,15)     =    -62.732418     0.000001    -0.059721   -62.792139
	   81 D(4,3,6,7)      =   -116.116221    -0.000003    -0.113790  -116.230011
	   82 D(4,3,6,16)     =     62.745533     0.000002     0.382955    63.128488
	   83 D(5,3,2,15)     =     53.609546    -0.000010    -0.471671    53.137875
	   84 D(5,3,6,7)      =    127.028806     0.000003     0.193747   127.222553
	   85 D(5,3,6,16)     =    -54.109439     0.000007     0.690492   -53.418948
	   86 D(6,3,2,15)     =    175.671501     0.000001    -0.027515   175.643986
	   87 D(6,7,8,9)      =   -179.019876    -0.000004    -0.557210  -179.577086
	   88 D(6,7,8,18)     =      0.408031    -0.000004    -0.418728    -0.010697
	   89 D(6,7,12,11)    =    179.129246     0.000010     1.183530   180.312775
	   90 D(7,8,9,10)     =     -0.438604     0.000004     0.419897    -0.018707
	   91 D(7,8,9,17)     =    178.966058     0.000000     0.131366   179.097425
	   92 D(7,12,1,19)    =   -177.156598    -0.000003    -0.222254  -177.378852
	   93 D(7,12,11,10)   =      0.255723    -0.000015    -1.694203    -1.438480
	   94 D(7,12,11,20)   =   -179.298162    -0.000018    -1.962138  -181.260300
	   95 D(8,7,6,16)     =      0.196082    -0.000005    -0.977515    -0.781432
	   96 D(8,7,12,11)    =     -1.889741     0.000015     1.712511    -0.177230
	   97 D(8,9,10,11)    =     -1.205957    -0.000005    -0.394176    -1.600133
	   98 D(8,9,10,13)    =   -179.322110    -0.000004    -0.385674  -179.707784
	   99 D(9,8,7,12)     =      1.991082    -0.000009    -1.082681     0.908401
	  100 D(9,10,11,12)   =      1.295277     0.000010     1.033957     2.329234
	  101 D(9,10,11,20)   =   -179.151560     0.000013     1.302890  -177.848670
	  102 *D(9,10,13,14)  =     34.112535    -0.000000    -0.000000    34.112535
	  103 D(10,9,8,18)    =   -179.852091     0.000003     0.277735  -179.574357
	  104 *D(10,13,14,21) =    -65.582691    -0.000000     0.000000   -65.582691
	  105 D(10,13,14,22)  =     54.821128     0.000061     2.471888    57.293016
	  106 D(10,13,14,23)  =    174.459480     0.000016     1.140646   175.600125
	  107 D(11,10,9,17)   =    179.409170    -0.000002    -0.111291   179.297879
	  108 *D(11,10,13,14) =   -144.049130    -0.000000     0.000000  -144.049130
	  109 D(11,12,1,19)   =      2.158263    -0.000010    -1.190161     0.968101
	  110 D(12,1,2,15)    =   -179.012136    -0.000001     0.199310  -178.812826
	  111 D(12,7,6,16)    =    179.165225     0.000000    -0.442491   178.722734
	  112 D(12,7,8,18)    =   -178.581012    -0.000009    -0.944199  -179.525210
	  113 D(12,11,10,13)  =    179.589054     0.000006     0.979450   180.568504
	  114 D(13,10,9,17)   =      1.293017    -0.000001    -0.102789     1.190228
	  115 D(13,10,11,20)  =     -0.857783     0.000009     1.248383     0.390600
	  116 D(15,2,1,19)    =      0.000000    -0.000001     0.139903     0.139903
	  117 D(17,9,8,18)    =     -0.447429    -0.000000    -0.010796    -0.458224
	 ---------------------------------------------------------------------------
	Successfully symmetrized geometry.

  ==> Convergence Check <==

  Measures of convergence in internal coordinates in au.
  Criteria marked as inactive (o), active & met (*), and active & unmet ( ).
  --------------------------------------------------------------------------------------------- ~
   Step     Total Energy     Delta E     MAX Force     RMS Force      MAX Disp      RMS Disp    ~
  --------------------------------------------------------------------------------------------- ~
    Convergence Criteria             o    2.50e-03 *    1.70e-03 *    1.00e-02 *    6.70e-03 *  ~
  --------------------------------------------------------------------------------------------- ~
      1   -1188.11448642   -1.19e+03 o    2.88e-02      6.68e-03      7.20e-02      2.03e-02    ~
  ---------------------------------------------------------------------------------------------

	Writing optimization data to binary file.
	Structure for next step:
	Cartesian Geometry (in Angstrom)
	    N    -0.9042038012  -1.5538989404   0.2169476177
	    C    -2.2012404805  -1.2574449274   0.5398833763
	    C    -2.5729277309   0.2402576461   0.5260558867
	    F    -3.5124268295   0.4114585088  -0.4406316521
	    F    -3.1434354872   0.5316159866   1.7216159068
	    C    -1.4399591269   1.2628245887   0.2689946707
	    C    -0.1125280547   0.7271228454  -0.0559503187
	    C     0.9462111574   1.5966416775  -0.3291178960
	    C     2.2023482606   1.1156350093  -0.6458883415
	    C     2.4248206445  -0.2663665920  -0.6952987314
	    C     1.3837054699  -1.1458557312  -0.3912057951
	    C     0.1203434014  -0.6559415076  -0.0883169164
	    S     3.9849435186  -0.9929351850  -1.0803395491
	    C     5.1291464416   0.2074854586  -0.3413143855
	    O    -3.0188179950  -2.1079204633   0.8112327358
	    O    -1.7027290290   2.4431655203   0.3357794453
	    H     2.9998902630   1.8167782052  -0.8672547741
	    H     0.7551438477   2.6638587441  -0.2932163702
	    H    -0.6977354742  -2.5460576003   0.2249469292
	    H     1.5636417009  -2.2177793934  -0.3948183233
	    H     5.0859245834   1.1784215397  -0.8400820997
	    H     4.9205662047   0.3289239313   0.7245322802
	    H     6.1272853930  -0.2136667404  -0.4684668631
			--------------------------
			 OPTKING Finished Execution 
			--------------------------

    Structure for next step:
    Molecular point group: c1
    Full point group: C1

    Geometry (in Angstrom), charge = 0, multiplicity = 1:

    N           -0.921692039219    -1.523795057470     0.238736186606
    C           -2.218728723590    -1.227341043349     0.561671946492
    C           -2.590415975421     0.270361536037     0.547844456840
    F           -3.529915077695     0.441562399410    -0.418843085806
    F           -3.160923733952     0.561719877694     1.743404481653
    C           -1.457447366984     1.292928482722     0.290783239843
    C           -0.130016289582     0.757226737282    -0.034161750839
    C            0.928722926662     1.626745572814    -0.307329329292
    C            2.184860034827     1.145738902654    -0.624099776003
    C            2.407332419628    -0.236262704058    -0.673510166092
    C            1.366217240881    -1.115751846659    -0.369417228555
    C            0.102855167451    -0.625837621172    -0.066528348740
    S            3.967455299850    -0.962831299845    -1.058550985336
    C            5.111658227311     0.237589348442    -0.319525818773
    O           -3.036306241247    -2.077816582593     0.833021307007
    O           -1.720217270144     2.473269418919     0.357568014643
    H            2.982402040344     1.846882101342    -0.845466209491
    H            0.737655616272     2.693962643553    -0.271427803259
    H           -0.715223711409    -2.515953721280     0.246735498108
    H            1.546153472663    -2.187675513087    -0.373029756795
    H            5.068436368980     1.208525433330    -0.818293534948
    H            4.903077989624     0.359027821588     0.746320851123
    H            6.109797182607    -0.183562852274    -0.446678296891

gradient() will perform analytic gradient computation.

*** tstart() called on cpu-spot-dy-c5n2xlarge-1
*** at Mon Jun 21 22:24:56 2021

   => Loading Basis Set <=

    Name: 6-31+G*
    Role: ORBITAL
    Keyword: BASIS
    atoms 1             entry N          line   138 file /fsx/users/francis/anaconda3/envs/poltype-dev/share/psi4/basis/6-31pgs.gbs 
    atoms 2-3, 6-12, 14 entry C          line   119 file /fsx/users/francis/anaconda3/envs/poltype-dev/share/psi4/basis/6-31pgs.gbs 
    atoms 4-5           entry F          line   176 file /fsx/users/francis/anaconda3/envs/poltype-dev/share/psi4/basis/6-31pgs.gbs 
    atoms 13            entry S          line   344 file /fsx/users/francis/anaconda3/envs/poltype-dev/share/psi4/basis/6-31pgs.gbs 
    atoms 15-16         entry O          line   157 file /fsx/users/francis/anaconda3/envs/poltype-dev/share/psi4/basis/6-31pgs.gbs 
    atoms 17-23         entry H          line    46 file /fsx/users/francis/anaconda3/envs/poltype-dev/share/psi4/basis/6-31pgs.gbs 


         ---------------------------------------------------------
                                   SCF
               by Justin Turney, Rob Parrish, Andy Simmonett
                          and Daniel G. A. Smith
                              RKS Reference
                        8 Threads,  15258 MiB Core
         ---------------------------------------------------------

  ==> Geometry <==

    Molecular point group: c1
    Full point group: C1

    Geometry (in Angstrom), charge = 0, multiplicity = 1:

       Center              X                  Y                   Z               Mass       
    ------------   -----------------  -----------------  -----------------  -----------------
         N           -0.921692039219    -1.523795057470     0.238736186606    14.003074004430
         C           -2.218728723590    -1.227341043349     0.561671946492    12.000000000000
         C           -2.590415975421     0.270361536037     0.547844456840    12.000000000000
         F           -3.529915077695     0.441562399410    -0.418843085806    18.998403162730
         F           -3.160923733952     0.561719877694     1.743404481653    18.998403162730
         C           -1.457447366984     1.292928482722     0.290783239843    12.000000000000
         C           -0.130016289582     0.757226737282    -0.034161750839    12.000000000000
         C            0.928722926662     1.626745572814    -0.307329329292    12.000000000000
         C            2.184860034827     1.145738902654    -0.624099776003    12.000000000000
         C            2.407332419628    -0.236262704058    -0.673510166092    12.000000000000
         C            1.366217240881    -1.115751846659    -0.369417228555    12.000000000000
         C            0.102855167451    -0.625837621172    -0.066528348740    12.000000000000
         S            3.967455299850    -0.962831299845    -1.058550985336    31.972071174400
         C            5.111658227311     0.237589348442    -0.319525818773    12.000000000000
         O           -3.036306241247    -2.077816582593     0.833021307007    15.994914619570
         O           -1.720217270144     2.473269418919     0.357568014643    15.994914619570
         H            2.982402040344     1.846882101342    -0.845466209491     1.007825032230
         H            0.737655616272     2.693962643553    -0.271427803259     1.007825032230
         H           -0.715223711409    -2.515953721280     0.246735498108     1.007825032230
         H            1.546153472663    -2.187675513087    -0.373029756795     1.007825032230
         H            5.068436368980     1.208525433330    -0.818293534948     1.007825032230
         H            4.903077989624     0.359027821588     0.746320851123     1.007825032230
         H            6.109797182607    -0.183562852274    -0.446678296891     1.007825032230

  Running in c1 symmetry.

  Rotational constants: A =      0.03907  B =      0.00836  C =      0.00724 [cm^-1]
  Rotational constants: A =   1171.28744  B =    250.73686  C =    217.03481 [MHz]
  Nuclear repulsion = 1189.986211434306369

  Charge       = 0
  Multiplicity = 1
  Electrons    = 124
  Nalpha       = 62
  Nbeta        = 62

  ==> Algorithm <==

  SCF Algorithm Type is DF.
  DIIS enabled.
  MOM disabled.
  Fractional occupation disabled.
  Guess Type is READ.
  Energy threshold   = 1.00e-08
  Density threshold  = 1.00e-08
  Integral threshold = 0.00e+00

  ==> Primary Basis <==

  Basis Set: 6-31+G*
    Blend: 6-31+G*
    Number of shells: 144
    Number of basis function: 322
    Number of Cartesian functions: 322
    Spherical Harmonics?: false
    Max angular momentum: 2

  ==> DFT Potential <==

   => Composite Functional: WB97X-D <= 

    wB97X-D Hyb-GGA Exchange-Correlation Functional

    J.-D. Chai and M. Head-Gordon, Phys. Chem. Chem. Phys. 10, 6615 (2008)

    Deriv               =              1
    GGA                 =           TRUE
    Meta                =          FALSE

    Exchange Hybrid     =           TRUE
    MP2 Hybrid          =          FALSE

   => Exchange-Correlation Functionals <=

    1.0000   wB97D range-separated functional

   => Exact (HF) Exchange <=

    0.7780            HF,LR [omega = 0.2000]
    0.2220               HF 

   => Molecular Quadrature <=

    Radial Scheme          =       TREUTLER
    Pruning Scheme         =           FLAT
    Nuclear Scheme         =       TREUTLER

    BS radius alpha        =              1
    Pruning alpha          =              1
    Radial Points          =             75
    Spherical Points       =            302
    Total Points           =         520857
    Total Blocks           =           3881
    Max Points             =            256
    Max Functions          =            288

   => WB97X-D: Empirical Dispersion <=

    Chai and Head-Gordon Dispersion Correction
    Chai, J.-D.; Head-Gordon, M. (2010), J. Chem. Phys., 132: 6615-6620

        s6 =       1.000000

   => Loading Basis Set <=

    Name: (6-31+G* AUX)
    Role: JKFIT
    Keyword: DF_BASIS_SCF
    atoms 1             entry N          line   252 file /fsx/users/francis/anaconda3/envs/poltype-dev/share/psi4/basis/heavy-aug-cc-pvdz-jkfit.gbs 
    atoms 2-3, 6-12, 14 entry C          line   194 file /fsx/users/francis/anaconda3/envs/poltype-dev/share/psi4/basis/heavy-aug-cc-pvdz-jkfit.gbs 
    atoms 4-5           entry F          line   368 file /fsx/users/francis/anaconda3/envs/poltype-dev/share/psi4/basis/heavy-aug-cc-pvdz-jkfit.gbs 
    atoms 13            entry S          line   730 file /fsx/users/francis/anaconda3/envs/poltype-dev/share/psi4/basis/heavy-aug-cc-pvdz-jkfit.gbs 
    atoms 15-16         entry O          line   310 file /fsx/users/francis/anaconda3/envs/poltype-dev/share/psi4/basis/heavy-aug-cc-pvdz-jkfit.gbs 
    atoms 17-23         entry H          line   116 file /fsx/users/francis/anaconda3/envs/poltype-dev/share/psi4/basis/heavy-aug-cc-pvdz-jkfit.gbs 

   => Loading Basis Set <=

    Name: 6-31+G*
    Role: ORBITAL
    Keyword: BASIS
    atoms 1             entry N          line   138 file /fsx/users/francis/anaconda3/envs/poltype-dev/share/psi4/basis/6-31pgs.gbs 
    atoms 2-3, 6-12, 14 entry C          line   119 file /fsx/users/francis/anaconda3/envs/poltype-dev/share/psi4/basis/6-31pgs.gbs 
    atoms 4-5           entry F          line   176 file /fsx/users/francis/anaconda3/envs/poltype-dev/share/psi4/basis/6-31pgs.gbs 
    atoms 13            entry S          line   344 file /fsx/users/francis/anaconda3/envs/poltype-dev/share/psi4/basis/6-31pgs.gbs 
    atoms 15-16         entry O          line   157 file /fsx/users/francis/anaconda3/envs/poltype-dev/share/psi4/basis/6-31pgs.gbs 
    atoms 17-23         entry H          line    46 file /fsx/users/francis/anaconda3/envs/poltype-dev/share/psi4/basis/6-31pgs.gbs 

  Reading orbitals from file 180, no projection.

  ==> Pre-Iterations <==

   -------------------------------------------------------
    Irrep   Nso     Nmo     Nalpha   Nbeta   Ndocc  Nsocc
   -------------------------------------------------------
     A        322     322       0       0       0       0
   -------------------------------------------------------
    Total     322     322      62      62      62       0
   -------------------------------------------------------

  ==> Integral Setup <==

  ==> DiskDFJK: Density-Fitted J/K Matrices <==

    J tasked:                  Yes
    K tasked:                  Yes
    wK tasked:                 Yes
    Omega:               2.000E-01
    OpenMP threads:              8
    Integrals threads:           8
    Memory [MiB]:             8421
    Algorithm:                Core
    Integral Cache:           NONE
    Schwarz Cutoff:          1E-12
    Fitting Condition:       1E-10

   => Auxiliary Basis Set <=

  Basis Set: (6-31+G* AUX)
    Blend: HEAVY-AUG-CC-PVDZ-JKFIT
    Number of shells: 523
    Number of basis function: 1840
    Number of Cartesian functions: 1840
    Spherical Harmonics?: false
    Max angular momentum: 3

  Cached 100.0% of DFT collocation blocks in 2.951 [GiB].

  Minimum eigenvalue in the overlap matrix is 5.3704215766E-07.
  Using Symmetric Orthogonalization.

  SCF Guess: Orbitals guess was supplied from a previous computation.

  ==> Iterations <==

                           Total Energy        Delta E     RMS |[F,P]|

   @DF-RKS iter   0: -1188.29808656511977   -1.18830e+03   1.36292e-03 
   @DF-RKS iter   1: -1188.11620549517374    1.81881e-01   2.61127e-04 DIIS
   @DF-RKS iter   2: -1188.11673299905488   -5.27504e-04   2.93313e-04 DIIS
   @DF-RKS iter   3: -1188.12057244491371   -3.83945e-03   6.36057e-05 DIIS
   @DF-RKS iter   4: -1188.12072106604842   -1.48621e-04   2.15609e-05 DIIS
   @DF-RKS iter   5: -1188.12074546829422   -2.44022e-05   5.57557e-06 DIIS
   @DF-RKS iter   6: -1188.12074758282051   -2.11453e-06   1.69278e-06 DIIS
   @DF-RKS iter   7: -1188.12074779248610   -2.09666e-07   7.91162e-07 DIIS
   @DF-RKS iter   8: -1188.12074784857305   -5.60869e-08   2.51765e-07 DIIS
   @DF-RKS iter   9: -1188.12074785970799   -1.11349e-08   1.37012e-07 DIIS
   @DF-RKS iter  10: -1188.12074786201333   -2.30534e-09   6.13286e-08 DIIS
   @DF-RKS iter  11: -1188.12074786277140   -7.58064e-10   2.66200e-08 DIIS
   @DF-RKS iter  12: -1188.12074786287872   -1.07320e-10   1.32922e-08 DIIS
   @DF-RKS iter  13: -1188.12074786290236   -2.36469e-11   5.55482e-09 DIIS
  Energy and wave function converged.


  ==> Post-Iterations <==

    Orbital Energies [Eh]
    ---------------------

    Doubly Occupied:                                                      

       1A    -89.080147     2A    -24.873059     3A    -24.871074  
       4A    -19.304052     5A    -19.293003     6A    -14.541685  
       7A    -10.500849     8A    -10.453683     9A    -10.429518  
      10A    -10.406036    11A    -10.384061    12A    -10.353264  
      13A    -10.350702    14A    -10.349070    15A    -10.348218  
      16A    -10.341674    17A     -8.097783    18A     -6.048465  
      19A     -6.044215    20A     -6.037773    21A     -1.390802  
      22A     -1.329665    23A     -1.193733    24A     -1.183828  
      25A     -1.100323    26A     -1.007312    27A     -0.944069  
      28A     -0.907766    29A     -0.889741    30A     -0.868928  
      31A     -0.798227    32A     -0.767149    33A     -0.754826  
      34A     -0.745337    35A     -0.698131    36A     -0.684107  
      37A     -0.670457    38A     -0.647041    39A     -0.630470  
      40A     -0.592316    41A     -0.585886    42A     -0.569573  
      43A     -0.563280    44A     -0.559165    45A     -0.556531  
      46A     -0.554052    47A     -0.546512    48A     -0.536210  
      49A     -0.521509    50A     -0.516738    51A     -0.509048  
      52A     -0.498585    53A     -0.495407    54A     -0.482073  
      55A     -0.475935    56A     -0.444246    57A     -0.430247  
      58A     -0.396157    59A     -0.390964    60A     -0.365945  
      61A     -0.341314    62A     -0.322100  

    Virtual:                                                              

      63A     -0.045242    64A      0.014119    65A      0.041694  
      66A      0.045367    67A      0.056097    68A      0.066669  
      69A      0.067395    70A      0.074272    71A      0.079956  
      72A      0.090110    73A      0.092803    74A      0.098211  
      75A      0.103839    76A      0.111419    77A      0.113203  
      78A      0.117256    79A      0.121028    80A      0.132470  
      81A      0.135104    82A      0.142268    83A      0.144746  
      84A      0.155676    85A      0.158439    86A      0.164317  
      87A      0.170008    88A      0.172202    89A      0.177359  
      90A      0.179982    91A      0.184766    92A      0.194122  
      93A      0.198775    94A      0.199893    95A      0.203608  
      96A      0.209766    97A      0.213490    98A      0.219925  
      99A      0.224503   100A      0.234511   101A      0.238101  
     102A      0.241538   103A      0.244917   104A      0.247402  
     105A      0.250110   106A      0.252623   107A      0.260798  
     108A      0.263045   109A      0.266778   110A      0.267432  
     111A      0.279809   112A      0.285477   113A      0.290430  
     114A      0.293007   115A      0.301659   116A      0.306062  
     117A      0.307099   118A      0.312921   119A      0.318664  
     120A      0.324096   121A      0.325658   122A      0.330805  
     123A      0.336398   124A      0.344335   125A      0.356865  
     126A      0.361876   127A      0.367385   128A      0.375537  
     129A      0.383286   130A      0.386549   131A      0.390948  
     132A      0.393778   133A      0.398870   134A      0.410707  
     135A      0.413887   136A      0.421115   137A      0.421660  
     138A      0.437150   139A      0.449031   140A      0.451937  
     141A      0.459981   142A      0.472030   143A      0.478267  
     144A      0.487249   145A      0.507525   146A      0.516128  
     147A      0.529207   148A      0.534919   149A      0.543580  
     150A      0.548365   151A      0.562674   152A      0.578850  
     153A      0.601830   154A      0.607332   155A      0.619367  
     156A      0.638274   157A      0.664263   158A      0.673263  
     159A      0.693414   160A      0.704687   161A      0.725478  
     162A      0.746610   163A      0.750080   164A      0.752621  
     165A      0.773722   166A      0.777753   167A      0.788574  
     168A      0.803734   169A      0.808245   170A      0.811321  
     171A      0.836834   172A      0.853496   173A      0.869309  
     174A      0.875615   175A      0.887636   176A      0.894581  
     177A      0.909350   178A      0.918432   179A      0.932342  
     180A      0.941587   181A      0.960638   182A      0.970543  
     183A      0.974636   184A      0.995808   185A      1.012033  
     186A      1.030557   187A      1.042022   188A      1.056801  
     189A      1.074980   190A      1.079594   191A      1.097809  
     192A      1.100940   193A      1.114459   194A      1.150659  
     195A      1.154374   196A      1.172257   197A      1.194775  
     198A      1.200374   199A      1.208427   200A      1.230393  
     201A      1.232359   202A      1.251614   203A      1.265814  
     204A      1.282362   205A      1.296614   206A      1.323709  
     207A      1.329719   208A      1.335234   209A      1.346824  
     210A      1.394506   211A      1.402034   212A      1.412372  
     213A      1.413048   214A      1.421938   215A      1.427928  
     216A      1.451678   217A      1.456071   218A      1.468381  
     219A      1.472915   220A      1.484781   221A      1.513313  
     222A      1.517663   223A      1.526411   224A      1.530423  
     225A      1.561924   226A      1.602660   227A      1.626321  
     228A      1.663050   229A      1.673283   230A      1.686063  
     231A      1.714075   232A      1.749427   233A      1.758173  
     234A      1.762726   235A      1.763784   236A      1.770072  
     237A      1.778461   238A      1.790234   239A      1.792604  
     240A      1.826708   241A      1.841229   242A      1.876564  
     243A      1.891527   244A      1.897877   245A      1.915580  
     246A      1.920127   247A      1.926488   248A      1.959981  
     249A      1.970276   250A      1.977111   251A      1.983614  
     252A      2.021128   253A      2.046882   254A      2.053580  
     255A      2.067418   256A      2.071157   257A      2.090051  
     258A      2.117984   259A      2.120871   260A      2.141547  
     261A      2.174337   262A      2.178972   263A      2.186637  
     264A      2.216877   265A      2.222112   266A      2.235120  
     267A      2.256511   268A      2.263917   269A      2.273335  
     270A      2.293604   271A      2.317386   272A      2.327126  
     273A      2.331757   274A      2.346428   275A      2.363671  
     276A      2.382884   277A      2.397296   278A      2.433434  
     279A      2.478878   280A      2.490938   281A      2.530692  
     282A      2.557286   283A      2.602294   284A      2.655467  
     285A      2.690637   286A      2.696603   287A      2.733014  
     288A      2.757685   289A      2.765771   290A      2.787228  
     291A      2.794666   292A      2.840872   293A      2.844618  
     294A      2.883395   295A      2.929834   296A      2.972171  
     297A      2.990111   298A      3.054548   299A      3.146000  
     300A      3.189689   301A      3.231787   302A      3.260639  
     303A      3.370944   304A      3.425319   305A      3.513716  
     306A      3.523047   307A      4.041424   308A      4.299828  
     309A      4.314178   310A      4.352481   311A      4.366538  
     312A      4.390554   313A      4.424857   314A      4.484651  
     315A      4.492645   316A      4.530420   317A      4.601294  
     318A      4.819165   319A      4.880059   320A      5.152091  
     321A      5.731786   322A      7.232315  

    Final Occupation by Irrep:
              A 
    DOCC [    62 ]

  @DF-RKS Final Energy: -1188.12074786290236

   => Energetics <=

    Nuclear Repulsion Energy =           1189.9862114343063695
    One-Electron Energy =               -3993.9224720406773486
    Two-Electron Energy =                1705.3931164112343595
    DFT Exchange-Correlation Energy =     -89.5638821175792543
    Empirical Dispersion Energy =          -0.0137215501864902
    VV10 Nonlocal Energy =                  0.0000000000000000
    Total Energy =                      -1188.1207478629023626

Computation Completed


Properties will be evaluated at   0.000000,   0.000000,   0.000000 [a0]

Properties computed using the SCF density matrix

  Nuclear Dipole Moment: [e a0]
     X:    25.7385      Y:     0.1793      Z:    -2.9241

  Electronic Dipole Moment: [e a0]
     X:   -22.7001      Y:    -0.4927      Z:     2.5808

  Dipole Moment: [e a0]
     X:     3.0384      Y:    -0.3133      Z:    -0.3433     Total:     3.0738

  Dipole Moment: [D]
     X:     7.7229      Y:    -0.7964      Z:    -0.8725     Total:     7.8127


*** tstop() called on cpu-spot-dy-c5n2xlarge-1 at Mon Jun 21 22:25:58 2021
Module time:
	user time   =     468.58 seconds =       7.81 minutes
	system time =       6.73 seconds =       0.11 minutes
	total time  =         62 seconds =       1.03 minutes
Total time:
	user time   =    1171.99 seconds =      19.53 minutes
	system time =      20.87 seconds =       0.35 minutes
	total time  =        160 seconds =       2.67 minutes

*** tstart() called on cpu-spot-dy-c5n2xlarge-1
*** at Mon Jun 21 22:25:58 2021


         ------------------------------------------------------------
                                   SCF GRAD                          
                          Rob Parrish, Justin Turney,                
                       Andy Simmonett, and Alex Sokolov              
         ------------------------------------------------------------

  ==> Geometry <==

    Molecular point group: c1
    Full point group: C1

    Geometry (in Angstrom), charge = 0, multiplicity = 1:

       Center              X                  Y                   Z               Mass       
    ------------   -----------------  -----------------  -----------------  -----------------
         N           -0.921692039219    -1.523795057470     0.238736186606    14.003074004430
         C           -2.218728723590    -1.227341043349     0.561671946492    12.000000000000
         C           -2.590415975421     0.270361536037     0.547844456840    12.000000000000
         F           -3.529915077695     0.441562399410    -0.418843085806    18.998403162730
         F           -3.160923733952     0.561719877694     1.743404481653    18.998403162730
         C           -1.457447366984     1.292928482722     0.290783239843    12.000000000000
         C           -0.130016289582     0.757226737282    -0.034161750839    12.000000000000
         C            0.928722926662     1.626745572814    -0.307329329292    12.000000000000
         C            2.184860034827     1.145738902654    -0.624099776003    12.000000000000
         C            2.407332419628    -0.236262704058    -0.673510166092    12.000000000000
         C            1.366217240881    -1.115751846659    -0.369417228555    12.000000000000
         C            0.102855167451    -0.625837621172    -0.066528348740    12.000000000000
         S            3.967455299850    -0.962831299845    -1.058550985336    31.972071174400
         C            5.111658227311     0.237589348442    -0.319525818773    12.000000000000
         O           -3.036306241247    -2.077816582593     0.833021307007    15.994914619570
         O           -1.720217270144     2.473269418919     0.357568014643    15.994914619570
         H            2.982402040344     1.846882101342    -0.845466209491     1.007825032230
         H            0.737655616272     2.693962643553    -0.271427803259     1.007825032230
         H           -0.715223711409    -2.515953721280     0.246735498108     1.007825032230
         H            1.546153472663    -2.187675513087    -0.373029756795     1.007825032230
         H            5.068436368980     1.208525433330    -0.818293534948     1.007825032230
         H            4.903077989624     0.359027821588     0.746320851123     1.007825032230
         H            6.109797182607    -0.183562852274    -0.446678296891     1.007825032230

  Nuclear repulsion = 1189.986211434306369

  ==> Basis Set <==

  Basis Set: 6-31+G*
    Blend: 6-31+G*
    Number of shells: 144
    Number of basis function: 322
    Number of Cartesian functions: 322
    Spherical Harmonics?: false
    Max angular momentum: 2

  ==> DFJKGrad: Density-Fitted SCF Gradients <==

    Gradient:                    1
    J tasked:                  Yes
    K tasked:                  Yes
    wK tasked:                 Yes
    Omega:               2.000E-01
    OpenMP threads:              8
    Integrals threads:           8
    Memory [MiB]:            11444
    Schwarz Cutoff:          0E+00
    Fitting Condition:       1E-10

   => Auxiliary Basis Set <=

  Basis Set: (6-31+G* AUX)
    Blend: HEAVY-AUG-CC-PVDZ-JKFIT
    Number of shells: 523
    Number of basis function: 1840
    Number of Cartesian functions: 1840
    Spherical Harmonics?: false
    Max angular momentum: 3

  ==> DFT Potential <==

   => Composite Functional: WB97X-D <= 

    wB97X-D Hyb-GGA Exchange-Correlation Functional

    J.-D. Chai and M. Head-Gordon, Phys. Chem. Chem. Phys. 10, 6615 (2008)

    Deriv               =              1
    GGA                 =           TRUE
    Meta                =          FALSE

    Exchange Hybrid     =           TRUE
    MP2 Hybrid          =          FALSE

   => Exchange-Correlation Functionals <=

    1.0000   wB97D range-separated functional

   => Exact (HF) Exchange <=

    0.7780            HF,LR [omega = 0.2000]
    0.2220               HF 

   => Molecular Quadrature <=

    Radial Scheme          =       TREUTLER
    Pruning Scheme         =           FLAT
    Nuclear Scheme         =       TREUTLER

    BS radius alpha        =              1
    Pruning alpha          =              1
    Radial Points          =             75
    Spherical Points       =            302
    Total Points           =         520857
    Total Blocks           =           3881
    Max Points             =            256
    Max Functions          =            288


  -Total Gradient:
     Atom            X                  Y                   Z
    ------   -----------------  -----------------  -----------------
       1        0.001427019210     0.002983073071    -0.000038367324
       2        0.000651798961     0.002494140267    -0.000663877219
       3        0.004735523627    -0.000981883020    -0.003136747200
       4       -0.000833221357     0.000222020531     0.000332416075
       5       -0.001502772143     0.000672893587     0.002238167897
       6       -0.002293703024    -0.002663374567     0.000416259085
       7        0.001288378112    -0.000127795853    -0.000378411169
       8       -0.000542207660    -0.000464980138     0.000438242361
       9       -0.001327139730    -0.003245639505     0.001674255848
      10        0.001692065866     0.003261523585    -0.006639088043
      11       -0.000951175921     0.001055003787     0.004073204965
      12        0.004098817177    -0.000847166227    -0.001182286277
      13       -0.002638539885    -0.001423560256     0.000992006105
      14        0.001145122080    -0.000470646935     0.000390476439
      15       -0.001086092849    -0.002002735863     0.000420943863
      16        0.000443106568     0.000679421563    -0.000195364537
      17        0.000733558072     0.000525024231     0.000193478633
      18        0.000355548070    -0.000553648812     0.000057541712
      19       -0.000904471171    -0.000397077917     0.000614581802
      20       -0.000250484690    -0.000160698305    -0.000547412600
      21       -0.001709285302     0.000988725948     0.000712769399
      22       -0.000213978309     0.000122369241     0.000189217933
      23       -0.001239723723    -0.000329929871     0.000003626743


*** tstop() called on cpu-spot-dy-c5n2xlarge-1 at Mon Jun 21 22:26:21 2021
Module time:
	user time   =     146.08 seconds =       2.43 minutes
[...]
	 B(7,8,9)         =         2.115045	     121.183159
	 B(7,8,18)        =         2.062557	     118.175783
	 B(7,12,11)       =         2.093568	     119.952611
	 B(8,7,12)        =         2.078729	     119.102417
	 B(8,9,10)        =         2.086981	     119.575212
	 B(8,9,17)        =         2.086087	     119.523958
	 B(9,8,18)        =         2.105509	     120.636766
	 B(9,10,11)       =         2.090812	     119.794731
	 B(9,10,13)       =         2.152833	     123.348246
	 B(10,9,17)       =         2.109952	     120.891334
	 B(10,11,12)      =         2.100243	     120.335084
	 B(10,11,20)      =         2.088340	     119.653043
	 B(10,13,14)      =         1.792436	     102.699022
	 B(11,10,13)      =         2.039098	     116.831691
	 B(12,1,19)       =         2.070503	     118.631094
	 B(12,11,20)      =         2.094582	     120.010705
	 B(13,14,21)      =         1.960344	     112.319418
	 B(13,14,22)      =         1.931250	     110.652501
	 B(13,14,23)      =         1.847399	     105.848149
	 B(21,14,22)      =         1.919780	     109.995281
	 B(21,14,23)      =         1.896486	     108.660637
	 B(22,14,23)      =         1.906393	     109.228274
	 D(1,2,3,4)       =         1.516308	      86.878065
	 D(1,2,3,5)       =        -2.728347	    -156.322790
	 D(1,2,3,6)       =        -0.518805	     -29.725340
	 D(1,12,7,6)      =        -0.021898	      -1.254680
	 D(1,12,7,8)      =         3.087481	     176.899648
	 D(1,12,11,10)    =        -3.123890	    -178.985697
	 D(1,12,11,20)    =         0.010816	       0.619740
	 D(2,1,12,7)      =         0.071525	       4.098074
	 D(2,1,12,11)     =        -3.124670	    -179.030404
	 D(2,3,6,7)       =         0.563057	      32.260778
	 D(2,3,6,16)      =        -2.635457	    -151.000546
	 D(3,2,1,12)      =         0.210167	      12.041670
	 D(3,2,1,19)      =        -3.035578	    -173.925830
	 D(3,6,7,8)       =         2.876872	     164.832625
	 D(3,6,7,12)      =        -0.297398	     -17.039634
	 D(4,3,2,15)      =        -1.562387	     -89.518194
	 D(4,3,6,7)       =        -1.472120	     -84.346282
	 D(4,3,6,16)      =         1.612551	      92.392394
	 D(5,3,2,15)      =         0.476142	      27.280951
	 D(5,3,6,7)       =         2.762085	     158.255806
	 D(5,3,6,16)      =        -0.436429	     -25.005518
	 D(6,3,2,15)      =         2.685685	     153.878401
	 D(6,7,8,9)       =         3.133033	     179.509586
	 D(6,7,8,18)      =        -0.021632	      -1.239427
	 D(6,7,12,11)     =        -3.108524	    -178.105302
	 D(7,8,9,10)      =        -0.012438	      -0.712659
	 D(7,8,9,17)      =         3.109767	     178.176550
	 D(7,12,1,19)     =        -2.962302	    -169.727421
	 D(7,12,11,10)    =        -0.036489	      -2.090652
	 D(7,12,11,20)    =         3.098217	     177.514784
	 D(8,7,6,16)      =        -0.204502	     -11.717076
	 D(8,7,12,11)     =         0.000856	       0.049027
	 D(8,9,10,11)     =        -0.023371	      -1.339075
	 D(8,9,10,13)     =        -3.131972	    -179.448768
	 D(9,8,7,12)      =         0.023717	       1.358893
	 D(9,10,11,12)    =         0.047862	       2.742298
	 D(9,10,11,20)    =        -3.086869	    -176.864548
	*D(9,10,13,14)    =         0.595376	      34.112535
	 D(10,9,8,18)     =        -3.140638	    -179.945287
	*D(10,13,14,21)   =        -1.144634	     -65.582691
	 D(10,13,14,22)   =         1.008235	      57.767636
	 D(10,13,14,23)   =         3.071562	     175.987543
	 D(11,10,9,17)    =         3.137880	     179.787260
	*D(11,10,13,14)   =        -2.514132	    -144.049130
	 D(11,12,1,19)    =         0.124688	       7.144101
	 D(12,1,2,15)     =        -2.995061	    -171.604336
	 D(12,7,6,16)     =         2.904414	     166.410665
	 D(12,7,8,18)     =        -3.130948	    -179.390120
	 D(12,11,10,13)   =        -3.124615	    -179.027239
	 D(13,10,9,17)    =         0.029279	       1.677566
	 D(13,10,11,20)   =         0.023840	       1.365915
	 D(15,2,1,19)     =         0.042379	       2.428163
	 D(17,9,8,18)     =        -0.018432	      -1.056077

	Current energy   :     -1188.1221105325

	Energy change for the previous step:
		Projected    :         0.0000942797
		Actual       :        -0.0000268019

	Performing BFGS update.
	Previous computed or guess Hessian on step 1.
	Steps to be used in Hessian update: 5 4
	Taking RFO optimization step.
	Going to follow RFO solution 1.
	Using RFO vector 1.
	Norm of target step-size    0.01405
	Projected energy change by RFO approximation:        -0.0000083313

	Back-transformation to cartesian coordinates...
	Could not converge backtransformation.
	Using first guess instead.

	Back-transformation to cartesian coordinates to adjust frozen coordinates...
	Successfully converged to displaced geometry.

	--- Internal Coordinate Step in ANG or DEG, aJ/ANG or AJ/DEG ---
	 ---------------------------------------------------------------------------
	   Coordinate                Previous        Force       Change         New 
	   ----------                --------       ------       ------       ------
	    1 R(1,2)          =      1.370824    -0.000544    -0.000045     1.370779
	    2 R(1,12)         =      1.399893    -0.001767    -0.000300     1.399594
	    3 R(1,19)         =      1.012787     0.000790     0.000072     1.012859
	    4 R(2,3)          =      1.545039     0.002088     0.000938     1.545977
	    5 R(2,15)         =      1.208197     0.001108     0.000065     1.208262
	    6 R(3,4)          =      1.375428     0.001327     0.000025     1.375453
	    7 R(3,5)          =      1.334625     0.001523     0.000074     1.334699
	    8 R(3,6)          =      1.548193     0.001753     0.000871     1.549064
	    9 R(6,7)          =      1.469630    -0.000265    -0.000065     1.469564
	   10 R(6,16)         =      1.209456    -0.003163    -0.000180     1.209276
	   11 R(7,8)          =      1.397649     0.003310     0.000626     1.398275
	   12 R(7,12)         =      1.405587    -0.004492    -0.000843     1.404744
	   13 R(8,9)          =      1.384065    -0.004124    -0.000679     1.383386
	   14 R(8,18)         =      1.085719     0.000021     0.000029     1.085748
	   15 R(9,10)         =      1.402708     0.002927     0.000670     1.403377
	   16 R(9,17)         =      1.083910    -0.000562    -0.000138     1.083772
	   17 R(10,11)        =      1.397661    -0.004444    -0.000914     1.396747
	   18 R(10,13)        =      1.770626     0.002345     0.000811     1.771437
	   19 R(11,12)        =      1.392150     0.003620     0.000737     1.392887
	   20 R(11,20)        =      1.086813     0.000001     0.000024     1.086837
	   21 R(13,14)        =      1.815099    -0.000943    -0.000476     1.814624
	   22 R(14,21)        =      1.091784     0.000062     0.000018     1.091802
	   23 R(14,22)        =      1.092456     0.000084     0.000005     1.092461
	   24 R(14,23)        =      1.092496     0.000015     0.000060     1.092556
	   25 B(1,2,3)        =    114.122492     0.000003     0.024414   114.146906
	   26 B(1,2,15)       =    123.402316     0.000001     0.008099   123.410415
	   27 B(1,12,7)       =    120.691237     0.000024     0.100176   120.791412
	   28 B(1,12,11)      =    119.282205    -0.000015    -0.057859   119.224346
	   29 B(2,1,12)       =    126.347685    -0.000012    -0.053734   126.293951
	   30 B(2,1,19)       =    114.762184     0.000024     0.131992   114.894177
	   31 B(2,3,4)        =    105.704285     0.000006     0.032081   105.736365
	   32 B(2,3,5)        =    109.788420     0.000004    -0.013799   109.774621
	   33 B(2,3,6)        =    115.767557    -0.000009    -0.014533   115.753023
	   34 B(3,2,15)       =    122.370516    -0.000003    -0.025134   122.345383
	   35 B(3,6,7)        =    114.648080    -0.000004    -0.003227   114.644852
	   36 B(3,6,16)       =    120.116302    -0.000005    -0.030096   120.086206
	   37 B(4,3,5)        =    108.467611    -0.000000     0.023226   108.490838
	   38 B(4,3,6)        =    105.697772    -0.000004    -0.009308   105.688464
	   39 B(5,3,6)        =    110.979165     0.000003    -0.011941   110.967224
	   40 B(6,7,8)        =    120.531693    -0.000008    -0.033217   120.498476
	   41 B(6,7,12)       =    120.339863     0.000000     0.003201   120.343064
	   42 B(7,6,16)       =    125.146349     0.000010     0.046507   125.192856
	   43 B(7,8,9)        =    121.183159     0.000002     0.014427   121.197587
	   44 B(7,8,18)       =    118.175783    -0.000012    -0.081457   118.094327
	   45 B(7,12,11)      =    119.952611    -0.000010    -0.042240   119.910372
	   46 B(8,7,12)       =    119.102417     0.000007     0.029992   119.132409
	   47 B(8,9,10)       =    119.575212    -0.000010    -0.050392   119.524819
	   48 B(8,9,17)       =    119.523958     0.000011     0.068215   119.592174
	   49 B(9,8,18)       =    120.636766     0.000009     0.066518   120.703284
	   50 B(9,10,11)      =    119.794731     0.000009     0.036189   119.830919
	   51 B(9,10,13)      =    123.348246    -0.000024    -0.098456   123.249790
	   52 B(10,9,17)      =    120.891334    -0.000001    -0.018539   120.872795
	   53 B(10,11,12)     =    120.335084     0.000002     0.010557   120.345641
	   54 B(10,11,20)     =    119.653043     0.000003     0.009758   119.662801
	   55 B(10,13,14)     =    102.699022    -0.000001     0.021072   102.720094
	   56 B(11,10,13)     =    116.831691     0.000015     0.062243   116.893934
	   57 B(12,1,19)      =    118.631094    -0.000012    -0.097411   118.533682
	   58 B(12,11,20)     =    120.010705    -0.000005    -0.019960   119.990744
	   59 B(13,14,21)     =    112.319418     0.000011     0.058369   112.377787
	   60 B(13,14,22)     =    110.652501     0.000010     0.068346   110.720847
	   61 B(13,14,23)     =    105.848149     0.000000    -0.002091   105.846057
	   62 B(21,14,22)     =    109.995281    -0.000009    -0.025509   109.969772
	   63 B(21,14,23)     =    108.660637    -0.000007    -0.060549   108.600088
	   64 B(22,14,23)     =    109.228274    -0.000006    -0.043271   109.185003
	   65 D(1,2,3,4)      =     86.878065    -0.000000     0.073462    86.951527
	   66 D(1,2,3,5)      =   -156.322790     0.000001     0.111345  -156.211446
	   67 D(1,2,3,6)      =    -29.725340     0.000001     0.071273   -29.654067
	   68 D(1,12,7,6)     =     -1.254680    -0.000000     0.097920    -1.156760
	   69 D(1,12,7,8)     =    176.899648    -0.000000     0.096454   176.996102
	   70 D(1,12,11,10)   =   -178.985697    -0.000000    -0.102147  -179.087844
	   71 D(1,12,11,20)   =      0.619740    -0.000000    -0.036849     0.582891
	   72 D(2,1,12,7)     =      4.098074    -0.000000    -0.160494     3.937581
	   73 D(2,1,12,11)    =   -179.030404    -0.000001    -0.160283  -179.190687
	   74 D(2,3,6,7)      =     32.260778    -0.000002    -0.127470    32.133308
	   75 D(2,3,6,16)     =   -151.000546     0.000001     0.124255  -150.876291
	   76 D(3,2,1,12)     =     12.041670     0.000001     0.076956    12.118627
	   77 D(3,2,1,19)     =   -173.925830    -0.000001    -0.143694  -174.069524
	   78 D(3,6,7,8)      =    164.832625     0.000000     0.029622   164.862247
	   79 D(3,6,7,12)     =    -17.039634     0.000000     0.029321   -17.010312
	   80 D(4,3,2,15)     =    -89.518194    -0.000001    -0.056154   -89.574348
	   81 D(4,3,6,7)      =    -84.346282    -0.000002    -0.152892   -84.499173
	   82 D(4,3,6,16)     =     92.392394     0.000001     0.098833    92.491228
	   83 D(5,3,2,15)     =     27.280951    -0.000000    -0.018271    27.262680
	   84 D(5,3,6,7)      =    158.255806    -0.000001    -0.168967   158.086839
	   85 D(5,3,6,16)     =    -25.005518     0.000001     0.082758   -24.922760
	   86 D(6,3,2,15)     =    153.878401    -0.000000    -0.058342   153.820059
	   87 D(6,7,8,9)      =    179.509586     0.000000    -0.030038   179.479548
	   88 D(6,7,8,18)     =     -1.239427    -0.000000    -0.072900    -1.312327
	   89 D(6,7,12,11)    =   -178.105302     0.000000     0.098153  -178.007149
	   90 D(7,8,9,10)     =     -0.712659    -0.000000    -0.038047    -0.750707
	   91 D(7,8,9,17)     =    178.176550    -0.000000    -0.079404   178.097147
	   92 D(7,12,1,19)    =   -169.727421     0.000001     0.055077  -169.672344
	   93 D(7,12,11,10)   =     -2.090652    -0.000000    -0.097391    -2.188043
	   94 D(7,12,11,20)   =    177.514784    -0.000000    -0.032093   177.482692
	   95 D(8,7,6,16)     =    -11.717076    -0.000002    -0.233925   -11.951001
	   96 D(8,7,12,11)    =      0.049027     0.000000     0.096687     0.145714
	   97 D(8,9,10,11)    =     -1.339075     0.000000     0.037639    -1.301435
	   98 D(8,9,10,13)    =   -179.448768    -0.000000     0.037283  -179.411485
	   99 D(9,8,7,12)     =      1.358893     0.000000    -0.029262     1.329631
	  100 D(9,10,11,12)   =      2.742298     0.000000     0.030749     2.773047
	  101 D(9,10,11,20)   =   -176.864548     0.000000    -0.034218  -176.898766
	  102 *D(9,10,13,14)  =     34.112535     0.000000    -0.000000    34.112535
	  103 D(10,9,8,18)    =   -179.945287     0.000000     0.007041  -179.938246
	  104 *D(10,13,14,21) =    -65.582691    -0.000000     0.000000   -65.582691
	  105 D(10,13,14,22)  =     57.767636     0.000001     0.059678    57.827314
	  106 D(10,13,14,23)  =    175.987543     0.000000     0.042798   176.030342
	  107 D(11,10,9,17)   =    179.787260     0.000000     0.078560   179.865820
	  108 *D(11,10,13,14) =   -144.049130     0.000000     0.000000  -144.049130
	  109 D(11,12,1,19)   =      7.144101     0.000000     0.055287     7.199388
	  110 D(12,1,2,15)    =   -171.604336     0.000001     0.206789  -171.397547
	  111 D(12,7,6,16)    =    166.410665    -0.000002    -0.234226   166.176440
	  112 D(12,7,8,18)    =   -179.390120    -0.000000    -0.072124  -179.462244
	  113 D(12,11,10,13)  =   -179.027239     0.000000     0.028108  -178.999131
	  114 D(13,10,9,17)   =      1.677566     0.000000     0.078204     1.755771
	  115 D(13,10,11,20)  =      1.365915    -0.000000    -0.036859     1.329056
	  116 D(15,2,1,19)    =      2.428163     0.000000    -0.013861     2.414303
	  117 D(17,9,8,18)    =     -1.056077    -0.000000    -0.034315    -1.090393
	 ---------------------------------------------------------------------------
	Successfully symmetrized geometry.

  ==> Convergence Check <==

  Measures of convergence in internal coordinates in au.
  Criteria marked as inactive (o), active & met (*), and active & unmet ( ).
  ---------------------------------------------------------------------------------------------
   Step     Total Energy     Delta E     MAX Force     RMS Force      MAX Disp      RMS Disp   
  ---------------------------------------------------------------------------------------------
    Convergence Criteria             o    2.50e-03 *    1.70e-03 *    1.00e-02 *    6.70e-03 *
  ---------------------------------------------------------------------------------------------
      6   -1188.12211053   -2.68e-05 o    5.45e-04 *    1.49e-04 *    4.09e-03 *    1.30e-03 *  ~
  ---------------------------------------------------------------------------------------------


  **** Optimization is complete! (in 6 steps) ****

  ==> Optimization Summary <==

  Measures of convergence in internal coordinates in au.
  --------------------------------------------------------------------------------------------------------------- ~
   Step         Total Energy             Delta E       MAX Force       RMS Force        MAX Disp        RMS Disp  ~
  --------------------------------------------------------------------------------------------------------------- ~
      1   -1188.121579984979  -1188.121579984979      0.00274170      0.00062609      0.04317110      0.00924392  ~
      2   -1188.121707107323     -0.000127122345      0.00211814      0.00044565      0.06882091      0.01844972  ~
      3   -1188.121875197458     -0.000168090135      0.00338761      0.00050509      0.07822486      0.01849120  ~
      4   -1188.121983529881     -0.000108332423      0.00254070      0.00041989      0.06601416      0.01849299  ~
      5   -1188.122083730572     -0.000100200691      0.00265993      0.00039907      0.04491388      0.01327283  ~
      6   -1188.122110532508     -0.000026801937      0.00054520      0.00014870      0.00408801      0.00129932  ~
  --------------------------------------------------------------------------------------------------------------- ~

	Writing optimization data to binary file.
	Final energy is  -1188.1221105325085
	Final (previous) structure:
	Cartesian Geometry (in Angstrom)
	    N    -0.9217108292  -1.5191189696   0.3849002552
	    C    -2.1892061285  -1.1956560823   0.7947602639
	    C    -2.5762783506   0.2792264350   0.5456778443
	    F    -3.0731416855   0.3223497166  -0.7361449881
	    F    -3.5468829915   0.6400255607   1.3876838664
	    C    -1.4090781518   1.2958728256   0.5769198627
	    C    -0.1226559592   0.7668760656   0.1024813901
	    C     0.9250255263   1.6331633128  -0.2220669501
	    C     2.1453554536   1.1492410541  -0.6605311300
	    C     2.3428101831  -0.2353119507  -0.7682974984
	    C     1.3174616524  -1.1133289213  -0.4060776095
	    C     0.0826841631  -0.6203261085   0.0066624674
	    S     3.8657575768  -0.9625552532  -1.3038954688
	    C     5.1091542803   0.1816506232  -0.6410664430
	    O    -2.9673950616  -2.0009160520   1.2483219643
	    O    -1.6095870002   2.4398449623   0.9144217914
	    H     2.9295106085   1.8460861418  -0.9332366954
	    H     0.7531401557   2.7014884063  -0.1330606355
	    H    -0.6915786047  -2.5029732438   0.4542326876
	    H     1.4902148471  -2.1857300245  -0.4417897609
	    H     5.0511572420   1.1695586785  -1.1022241105
	    H     5.0126255061   0.2694575268   0.4435678454
	    H     6.0791169124  -0.2599003491  -0.8813863989
	Saving final (previous) structure.
			--------------------------
			 OPTKING Finished Execution 
			--------------------------

    Final optimized geometry and variables:
    Molecular point group: c1
    Full point group: C1

    Geometry (in Angstrom), charge = 0, multiplicity = 1:

    N           -0.921710832857    -1.519118975580     0.384900256711
    C           -2.189206137137    -1.195656086992     0.794760266983
    C           -2.576278360684     0.279226436126     0.545677846415
    F           -3.073141697618     0.322349717914    -0.736144991031
    F           -3.546883005406     0.640025563224     1.387683871900
    C           -1.409078157290     1.295872830667     0.576919864926
    C           -0.122655959722     0.766876068656     0.102481390534
    C            0.925025529979     1.633163319240    -0.222066950928
    C            2.145355462001     1.149241058644    -0.660531132576
    C            2.342810192297    -0.235311951661    -0.768297501405
    C            1.317461657587    -1.113328925713    -0.406077611096
    C            0.082684163437    -0.620326110950     0.006662467467
    S            3.865757592033    -0.962555257012    -1.303895473944
    C            5.109154300347     0.181650623911    -0.641066445480
    O           -2.967395073241    -2.000916059854     1.248321969200
    O           -1.609587006509     2.439844971884     0.914421794958
    H            2.929510620011     1.846086149081    -0.933236699099
    H            0.753140158629     2.701488416910    -0.133060636057
    H           -0.691578607409    -2.502973253598     0.454232689353
    H            1.490214852922    -2.185730033050    -0.441789762679
    H            5.051157261884     1.169558683071    -1.102224114876
    H            5.012625525773     0.269457527906     0.443567847158
    H            6.079116936291    -0.259900350081    -0.881386402413

	Removing binary optimization data file.
	Cleaning optimization helper files.

    Psi4 stopped on: Monday, 21 June 2021 10:43PM
    Psi4 wall time for execution: 0:20:37.93

*** Psi4 exiting successfully. Buy a developer a beer!
