
    -----------------------------------------------------------------------
          Psi4: An Open-Source Ab Initio Electronic Structure Package
                               Psi4 1.3.2 release

                         Git: Rev {HEAD} ecbda83 


    R. M. Parrish, L. A. Burns, D. G. A. Smith, A. C. Simmonett,
    A. E. DePrince III, E. G. Hohenstein, U. Bozkaya, A. Yu. Sokolov,
    R. Di Remigio, R. M. Richard, J. F. Gonthier, A. M. James,
    H. R. McAlexander, A. Kumar, M. Saitow, X. Wang, B. P. Pritchard,
    P. Verma, H. F. Schaefer III, K. Patkowski, R. A. King, E. F. Valeev,
    F. A. Evangelista, J. M. Turney, T. D. Crawford, and C. D. Sherrill,
    J. Chem. Theory Comput. 13(7) pp 3185--3197 (2017).
    (doi: 10.1021/acs.jctc.7b00174)


                         Additional Contributions by
    P. Kraus, H. Kruse, M. H. Lechner, M. C. Schieber, R. A. Shaw,
    A. Alenaizan, R. Galvelis, Z. L. Glick, S. Lehtola, and J. P. Misiewicz

    -----------------------------------------------------------------------


    Psi4 started on: Monday, 21 June 2021 10:44PM

    Process ID: 17956
    Host:       cpu-spot-dy-c5n2xlarge-1
    PSIDATADIR: /fsx/users/francis/anaconda3/envs/poltype-dev/share/psi4
    Memory:     500.0 MiB
    Threads:    1
    
  ==> Input File <==

--------------------------------------------------------------------------
molecule { 
0 1
 N   -0.884886   -1.452294    0.184756
 C   -2.156013   -1.182041    0.618909
 C   -2.558592    0.329420    0.663058
 F   -3.665785    0.485967   -0.140363
 F   -2.921204    0.623067    1.958611
 C   -1.481439    1.376511    0.212945
 C   -0.162741    0.861650   -0.222001
 C    0.846916    1.759720   -0.634532
 C    2.100345    1.293706   -1.050143
 C    2.375084   -0.098498   -1.064575
 C    1.371085   -0.997112   -0.643654
 C    0.110085   -0.534591   -0.228476
 S    3.928010   -0.804675   -1.535069
 C    5.079295   -0.191667   -0.278457
 O   -2.904588   -2.091869    0.945594
 O   -1.735805    2.577276    0.227614
 H    2.849639    2.021141   -1.361040
 H    0.624730    2.827235   -0.621382
 H   -0.685333   -2.443243    0.178868
 H    1.578015   -2.068220   -0.637220
 H    5.173503    0.894706   -0.368297
 H    4.701321   -0.448983    0.716069
 H    6.056393   -0.659269   -0.432180
}
set optking { 
  frozen_dihedral = ("
    11 10 13 14
    9 10 13 14
    21 14 13 10
  ")
}
set {
  geom_maxiter 400
  g_convergence GAU_LOOSE
  dynamic_level 1
}
memory 16GB
set_num_threads(8)
psi4_io.set_default_path("/scratch/Psi4-ligand")
for _ in range(1):
  try:
    set opt_coordinates both
    optimize('wb97x-d/6-31+G*')
    break
  except OptimizationConvergenceError:
    break
  else:
    try:
      set opt_coordinates cartesian
      optimize('wb97x-d/6-31+G*')
      break
    except OptimizationConvergenceError:
      pass
clean()
--------------------------------------------------------------------------

  Memory set to  14.901 GiB by Python driver.
  Threads set to 8 by Python driver.
gradient() will perform analytic gradient computation.

*** tstart() called on cpu-spot-dy-c5n2xlarge-1
*** at Mon Jun 21 22:44:02 2021

   => Loading Basis Set <=

    Name: 6-31+G*
    Role: ORBITAL
    Keyword: BASIS
    atoms 1             entry N          line   138 file /fsx/users/francis/anaconda3/envs/poltype-dev/share/psi4/basis/6-31pgs.gbs 
    atoms 2-3, 6-12, 14 entry C          line   119 file /fsx/users/francis/anaconda3/envs/poltype-dev/share/psi4/basis/6-31pgs.gbs 
    atoms 4-5           entry F          line   176 file /fsx/users/francis/anaconda3/envs/poltype-dev/share/psi4/basis/6-31pgs.gbs 
    atoms 13            entry S          line   344 file /fsx/users/francis/anaconda3/envs/poltype-dev/share/psi4/basis/6-31pgs.gbs 
    atoms 15-16         entry O          line   157 file /fsx/users/francis/anaconda3/envs/poltype-dev/share/psi4/basis/6-31pgs.gbs 
    atoms 17-23         entry H          line    46 file /fsx/users/francis/anaconda3/envs/poltype-dev/share/psi4/basis/6-31pgs.gbs 


         ---------------------------------------------------------
                                   SCF
               by Justin Turney, Rob Parrish, Andy Simmonett
                          and Daniel G. A. Smith
                              RKS Reference
                        8 Threads,  15258 MiB Core
         ---------------------------------------------------------

  ==> Geometry <==

    Molecular point group: c1
    Full point group: C1

    Geometry (in Angstrom), charge = 0, multiplicity = 1:

       Center              X                  Y                   Z               Mass       
    ------------   -----------------  -----------------  -----------------  -----------------
         N           -0.887255926043    -1.511136576125     0.296892667240    14.003074004430
         C           -2.158382926043    -1.240883576125     0.731045667240    12.000000000000
         C           -2.560961926043     0.270577423875     0.775194667240    12.000000000000
         F           -3.668154926043     0.427124423875    -0.028226332760    18.998403162730
         F           -2.923573926043     0.564224423875     2.070747667240    18.998403162730
         C           -1.483808926043     1.317668423875     0.325081667240    12.000000000000
         C           -0.165110926043     0.802807423875    -0.109864332760    12.000000000000
         C            0.844546073957     1.700877423875    -0.522395332760    12.000000000000
         C            2.097975073957     1.234863423875    -0.938006332760    12.000000000000
         C            2.372714073957    -0.157340576125    -0.952438332760    12.000000000000
         C            1.368715073957    -1.055954576125    -0.531517332760    12.000000000000
         C            0.107715073957    -0.593433576125    -0.116339332760    12.000000000000
         S            3.925640073957    -0.863517576125    -1.422932332760    31.972071174400
         C            5.076925073957    -0.250509576125    -0.166320332760    12.000000000000
         O           -2.906957926043    -2.150711576125     1.057730667240    15.994914619570
         O           -1.738174926043     2.518433423875     0.339750667240    15.994914619570
         H            2.847269073957     1.962298423875    -1.248903332760     1.007825032230
         H            0.622360073957     2.768392423875    -0.509245332760     1.007825032230
         H           -0.687702926043    -2.502085576125     0.291004667240     1.007825032230
         H            1.575645073957    -2.127062576125    -0.525083332760     1.007825032230
         H            5.171133073957     0.835863423875    -0.256160332760     1.007825032230
         H            4.698951073957    -0.507825576125     0.828205667240     1.007825032230
         H            6.054023073957    -0.718111576125    -0.320043332760     1.007825032230

  Running in c1 symmetry.

  Rotational constants: A =      0.03681  B =      0.00824  C =      0.00719 [cm^-1]
  Rotational constants: A =   1103.44302  B =    247.13865  C =    215.62896 [MHz]
  Nuclear repulsion = 1177.014404787658350

  Charge       = 0
  Multiplicity = 1
  Electrons    = 124
  Nalpha       = 62
  Nbeta        = 62

  ==> Algorithm <==

  SCF Algorithm Type is DF.
  DIIS enabled.
  MOM disabled.
  Fractional occupation disabled.
  Guess Type is SAD.
  Energy threshold   = 1.00e-08
  Density threshold  = 1.00e-08
  Integral threshold = 0.00e+00

  ==> Primary Basis <==

  Basis Set: 6-31+G*
    Blend: 6-31+G*
    Number of shells: 144
    Number of basis function: 322
    Number of Cartesian functions: 322
    Spherical Harmonics?: false
    Max angular momentum: 2

  ==> DFT Potential <==

   => Composite Functional: WB97X-D <= 

    wB97X-D Hyb-GGA Exchange-Correlation Functional

    J.-D. Chai and M. Head-Gordon, Phys. Chem. Chem. Phys. 10, 6615 (2008)

    Deriv               =              1
    GGA                 =           TRUE
    Meta                =          FALSE

    Exchange Hybrid     =           TRUE
    MP2 Hybrid          =          FALSE

   => Exchange-Correlation Functionals <=

    1.0000   wB97D range-separated functional

   => Exact (HF) Exchange <=

    0.7780            HF,LR [omega = 0.2000]
    0.2220               HF 

   => Molecular Quadrature <=

    Radial Scheme          =       TREUTLER
    Pruning Scheme         =           FLAT
    Nuclear Scheme         =       TREUTLER

    BS radius alpha        =              1
    Pruning alpha          =              1
    Radial Points          =             75
    Spherical Points       =            302
    Total Points           =         520862
    Total Blocks           =           3864
    Max Points             =            256
    Max Functions          =            284

   => WB97X-D: Empirical Dispersion <=

    Chai and Head-Gordon Dispersion Correction
    Chai, J.-D.; Head-Gordon, M. (2010), J. Chem. Phys., 132: 6615-6620

        s6 =       1.000000

   => Loading Basis Set <=

    Name: (6-31+G* AUX)
    Role: JKFIT
    Keyword: DF_BASIS_SCF
    atoms 1             entry N          line   252 file /fsx/users/francis/anaconda3/envs/poltype-dev/share/psi4/basis/heavy-aug-cc-pvdz-jkfit.gbs 
    atoms 2-3, 6-12, 14 entry C          line   194 file /fsx/users/francis/anaconda3/envs/poltype-dev/share/psi4/basis/heavy-aug-cc-pvdz-jkfit.gbs 
    atoms 4-5           entry F          line   368 file /fsx/users/francis/anaconda3/envs/poltype-dev/share/psi4/basis/heavy-aug-cc-pvdz-jkfit.gbs 
    atoms 13            entry S          line   730 file /fsx/users/francis/anaconda3/envs/poltype-dev/share/psi4/basis/heavy-aug-cc-pvdz-jkfit.gbs 
    atoms 15-16         entry O          line   310 file /fsx/users/francis/anaconda3/envs/poltype-dev/share/psi4/basis/heavy-aug-cc-pvdz-jkfit.gbs 
    atoms 17-23         entry H          line   116 file /fsx/users/francis/anaconda3/envs/poltype-dev/share/psi4/basis/heavy-aug-cc-pvdz-jkfit.gbs 

  ==> Pre-Iterations <==

   -------------------------------------------------------
    Irrep   Nso     Nmo     Nalpha   Nbeta   Ndocc  Nsocc
   -------------------------------------------------------
     A        322     322       0       0       0       0
   -------------------------------------------------------
    Total     322     322      62      62      62       0
   -------------------------------------------------------

  ==> Integral Setup <==

  ==> DiskDFJK: Density-Fitted J/K Matrices <==

    J tasked:                  Yes
    K tasked:                  Yes
    wK tasked:                 Yes
    Omega:               2.000E-01
    OpenMP threads:              8
    Integrals threads:           8
    Memory [MiB]:             8444
    Algorithm:                Core
    Integral Cache:           NONE
    Schwarz Cutoff:          1E-12
    Fitting Condition:       1E-10

   => Auxiliary Basis Set <=

  Basis Set: (6-31+G* AUX)
    Blend: HEAVY-AUG-CC-PVDZ-JKFIT
    Number of shells: 523
    Number of basis function: 1840
    Number of Cartesian functions: 1840
    Spherical Harmonics?: false
    Max angular momentum: 3

  Cached 100.0% of DFT collocation blocks in 2.930 [GiB].

  Minimum eigenvalue in the overlap matrix is 6.0329420621E-07.
  Using Symmetric Orthogonalization.

  SCF Guess: Superposition of Atomic Densities via on-the-fly atomic UHF.

  ==> Iterations <==

                           Total Energy        Delta E     RMS |[F,P]|

   @DF-RKS iter SAD: -1187.21240244456499   -1.18721e+03   0.00000e+00 
   @DF-RKS iter   1: -1187.60112370998945   -3.88721e-01   3.27056e-03 DIIS
   @DF-RKS iter   2: -1187.61378229526872   -1.26586e-02   3.56011e-03 DIIS
   @DF-RKS iter   3: -1188.08300300389419   -4.69221e-01   8.22386e-04 DIIS
   @DF-RKS iter   4: -1188.11035214368962   -2.73491e-02   2.15636e-04 DIIS
   @DF-RKS iter   5: -1188.11260636663496   -2.25422e-03   6.43832e-05 DIIS
   @DF-RKS iter   6: -1188.11288946813465   -2.83101e-04   2.18568e-05 DIIS
   @DF-RKS iter   7: -1188.11293241830276   -4.29502e-05   8.23500e-06 DIIS
   @DF-RKS iter   8: -1188.11294528535882   -1.28671e-05   3.35302e-06 DIIS
   @DF-RKS iter   9: -1188.11294796511697   -2.67976e-06   2.16847e-06 DIIS
   @DF-RKS iter  10: -1188.11294836980255   -4.04686e-07   6.58832e-07 DIIS
   @DF-RKS iter  11: -1188.11294842274879   -5.29462e-08   2.67109e-07 DIIS
   @DF-RKS iter  12: -1188.11294842948723   -6.73845e-09   1.17096e-07 DIIS
   @DF-RKS iter  13: -1188.11294843108863   -1.60139e-09   4.57033e-08 DIIS
   @DF-RKS iter  14: -1188.11294843127939   -1.90767e-10   2.18777e-08 DIIS
   @DF-RKS iter  15: -1188.11294843132737   -4.79758e-11   9.80288e-09 DIIS
  Energy and wave function converged.


  ==> Post-Iterations <==

    Orbital Energies [Eh]
    ---------------------

    Doubly Occupied:                                                      

       1A    -89.072316     2A    -24.876871     3A    -24.876707  
       4A    -19.311993     5A    -19.296553     6A    -14.545462  
       7A    -10.514411     8A    -10.461406     9A    -10.441212  
      10A    -10.413608    11A    -10.386285    12A    -10.360957  
      13A    -10.357189    14A    -10.355968    15A    -10.349888  
      16A    -10.349476    17A     -8.089872    18A     -6.040737  
      19A     -6.036426    20A     -6.029567    21A     -1.385163  
      22A     -1.328777    23A     -1.191761    24A     -1.180903  
      25A     -1.095076    26A     -1.000724    27A     -0.939353  
      28A     -0.904746    29A     -0.888738    30A     -0.868111  
      31A     -0.794631    32A     -0.766711    33A     -0.753868  
      34A     -0.742083    35A     -0.696194    36A     -0.680698  
      37A     -0.669385    38A     -0.645624    39A     -0.630212  
      40A     -0.591082    41A     -0.580586    42A     -0.567881  
      43A     -0.563796    44A     -0.558463    45A     -0.555004  
      46A     -0.553478    47A     -0.540207    48A     -0.538741  
      49A     -0.528076    50A     -0.519530    51A     -0.510780  
      52A     -0.501696    53A     -0.496334    54A     -0.481024  
      55A     -0.476741    56A     -0.442280    57A     -0.421330  
      58A     -0.399065    59A     -0.374872    60A     -0.372456  
      61A     -0.341577    62A     -0.328119  

    Virtual:                                                              

      63A     -0.054996    64A      0.009021    65A      0.038061  
      66A      0.044534    67A      0.055794    68A      0.060907  
      69A      0.065813    70A      0.071789    71A      0.077772  
      72A      0.089236    73A      0.093070    74A      0.095371  
      75A      0.104823    76A      0.110929    77A      0.115015  
      78A      0.116199    79A      0.122891    80A      0.132837  
      81A      0.134035    82A      0.140113    83A      0.142561  
      84A      0.150164    85A      0.155183    86A      0.159894  
      87A      0.167525    88A      0.172659    89A      0.175580  
      90A      0.178448    91A      0.184077    92A      0.187075  
      93A      0.193896    94A      0.197453    95A      0.200247  
      96A      0.206690    97A      0.209100    98A      0.212645  
      99A      0.222089   100A      0.227547   101A      0.233408  
     102A      0.237295   103A      0.241858   104A      0.247487  
     105A      0.247889   106A      0.249883   107A      0.254663  
     108A      0.258971   109A      0.264545   110A      0.272280  
     111A      0.275364   112A      0.280656   113A      0.285063  
     114A      0.289301   115A      0.294456   116A      0.300510  
     117A      0.306341   118A      0.309655   119A      0.310952  
     120A      0.316116   121A      0.322916   122A      0.327964  
     123A      0.329648   124A      0.339780   125A      0.351274  
     126A      0.357631   127A      0.364142   128A      0.373433  
     129A      0.375210   130A      0.381608   131A      0.389430  
     132A      0.390631   133A      0.393813   134A      0.399137  
     135A      0.408043   136A      0.413596   137A      0.421947  
     138A      0.430744   139A      0.442396   140A      0.446512  
     141A      0.455315   142A      0.464188   143A      0.474263  
     144A      0.489609   145A      0.501118   146A      0.508381  
     147A      0.525623   148A      0.529096   149A      0.536853  
     150A      0.547297   151A      0.554463   152A      0.576728  
     153A      0.587740   154A      0.603544   155A      0.608021  
     156A      0.635179   157A      0.658024   158A      0.674906  
     159A      0.691774   160A      0.700012   161A      0.715096  
     162A      0.734757   163A      0.745594   164A      0.748384  
     165A      0.768844   166A      0.786241   167A      0.794244  
     168A      0.799840   169A      0.803976   170A      0.820905  
     171A      0.826146   172A      0.868250   173A      0.872267  
     174A      0.875073   175A      0.882636   176A      0.896623  
     177A      0.911173   178A      0.912798   179A      0.930941  
     180A      0.937866   181A      0.958573   182A      0.969125  
     183A      0.972495   184A      0.979449   185A      1.015438  
     186A      1.030280   187A      1.043158   188A      1.053090  
     189A      1.058470   190A      1.071357   191A      1.081113  
     192A      1.090061   193A      1.111662   194A      1.146106  
     195A      1.165159   196A      1.167861   197A      1.191242  
     198A      1.199811   199A      1.207278   200A      1.213844  
     201A      1.218730   202A      1.237212   203A      1.261944  
     204A      1.280791   205A      1.289715   206A      1.318044  
     207A      1.321789   208A      1.331002   209A      1.339059  
     210A      1.374500   211A      1.394241   212A      1.403907  
     213A      1.413142   214A      1.415891   215A      1.432465  
     216A      1.447398   217A      1.458814   218A      1.463724  
     219A      1.465997   220A      1.476032   221A      1.488343  
     222A      1.510546   223A      1.520656   224A      1.529837  
     225A      1.547677   226A      1.599214   227A      1.619635  
     228A      1.646740   229A      1.660054   230A      1.665959  
     231A      1.705237   232A      1.746035   233A      1.748514  
     234A      1.756143   235A      1.756815   236A      1.772350  
     237A      1.776619   238A      1.782677   239A      1.793248  
     240A      1.817303   241A      1.835271   242A      1.859902  
     243A      1.870327   244A      1.893572   245A      1.895109  
     246A      1.904071   247A      1.915841   248A      1.945548  
     249A      1.959678   250A      1.962954   251A      1.969483  
     252A      2.004796   253A      2.035317   254A      2.041081  
     255A      2.054295   256A      2.056561   257A      2.076183  
     258A      2.087124   259A      2.097224   260A      2.110920  
     261A      2.141449   262A      2.148529   263A      2.163328  
     264A      2.201344   265A      2.203412   266A      2.209345  
     267A      2.249519   268A      2.257534   269A      2.264395  
     270A      2.266920   271A      2.302000   272A      2.306217  
     273A      2.330718   274A      2.335610   275A      2.348472  
     276A      2.362826   277A      2.377027   278A      2.399499  
     279A      2.460012   280A      2.461764   281A      2.507720  
     282A      2.511994   283A      2.564818   284A      2.624208  
     285A      2.652247   286A      2.671069   287A      2.701442  
     288A      2.723289   289A      2.732213   290A      2.762667  
     291A      2.765677   292A      2.818695   293A      2.823735  
     294A      2.848688   295A      2.894333   296A      2.943267  
     297A      2.961235   298A      3.024199   299A      3.120124  
     300A      3.151229   301A      3.206808   302A      3.229427  
     303A      3.334624   304A      3.374664   305A      3.460223  
     306A      3.483197   307A      4.043515   308A      4.275901  
     309A      4.313215   310A      4.332600   311A      4.359774  
     312A      4.373719   313A      4.414415   314A      4.465662  
     315A      4.480293   316A      4.522338   317A      4.577063  
     318A      4.776628   319A      4.833621   320A      5.112179  
     321A      5.692699   322A      7.139358  

    Final Occupation by Irrep:
              A 
    DOCC [    62 ]

  @DF-RKS Final Energy: -1188.11294843132737

   => Energetics <=

    Nuclear Repulsion Energy =           1177.0144047876583500
    One-Electron Energy =               -3968.0429015735621761
    Two-Electron Energy =                1692.3747683455483184
    DFT Exchange-Correlation Energy =     -89.4457456513301850
    Empirical Dispersion Energy =          -0.0134743396415788
    VV10 Nonlocal Energy =                  0.0000000000000000
    Total Energy =                      -1188.1129484313273679

Computation Completed


Properties will be evaluated at   0.000000,   0.000000,   0.000000 [a0]

Properties computed using the SCF density matrix

  Nuclear Dipole Moment: [e a0]
     X:    25.3156      Y:    -1.2223      Z:    -3.5899

  Electronic Dipole Moment: [e a0]
     X:   -22.5431      Y:     0.8797      Z:     3.2870

  Dipole Moment: [e a0]
     X:     2.7725      Y:    -0.3426      Z:    -0.3029     Total:     2.8100

  Dipole Moment: [D]
     X:     7.0470      Y:    -0.8708      Z:    -0.7700     Total:     7.1422


*** tstop() called on cpu-spot-dy-c5n2xlarge-1 at Mon Jun 21 22:45:13 2021
Module time:
	user time   =     526.93 seconds =       8.78 minutes
	system time =      10.08 seconds =       0.17 minutes
	total time  =         71 seconds =       1.18 minutes
Total time:
	user time   =     526.93 seconds =       8.78 minutes
	system time =      10.08 seconds =       0.17 minutes
	total time  =         71 seconds =       1.18 minutes

*** tstart() called on cpu-spot-dy-c5n2xlarge-1
*** at Mon Jun 21 22:45:13 2021


         ------------------------------------------------------------
                                   SCF GRAD                          
                          Rob Parrish, Justin Turney,                
                       Andy Simmonett, and Alex Sokolov              
         ------------------------------------------------------------

  ==> Geometry <==

    Molecular point group: c1
    Full point group: C1

    Geometry (in Angstrom), charge = 0, multiplicity = 1:

       Center              X                  Y                   Z               Mass       
    ------------   -----------------  -----------------  -----------------  -----------------
         N           -0.887255926043    -1.511136576125     0.296892667240    14.003074004430
         C           -2.158382926043    -1.240883576125     0.731045667240    12.000000000000
         C           -2.560961926043     0.270577423875     0.775194667240    12.000000000000
         F           -3.668154926043     0.427124423875    -0.028226332760    18.998403162730
         F           -2.923573926043     0.564224423875     2.070747667240    18.998403162730
         C           -1.483808926043     1.317668423875     0.325081667240    12.000000000000
         C           -0.165110926043     0.802807423875    -0.109864332760    12.000000000000
         C            0.844546073957     1.700877423875    -0.522395332760    12.000000000000
         C            2.097975073957     1.234863423875    -0.938006332760    12.000000000000
         C            2.372714073957    -0.157340576125    -0.952438332760    12.000000000000
         C            1.368715073957    -1.055954576125    -0.531517332760    12.000000000000
         C            0.107715073957    -0.593433576125    -0.116339332760    12.000000000000
         S            3.925640073957    -0.863517576125    -1.422932332760    31.972071174400
         C            5.076925073957    -0.250509576125    -0.166320332760    12.000000000000
         O           -2.906957926043    -2.150711576125     1.057730667240    15.994914619570
         O           -1.738174926043     2.518433423875     0.339750667240    15.994914619570
         H            2.847269073957     1.962298423875    -1.248903332760     1.007825032230
         H            0.622360073957     2.768392423875    -0.509245332760     1.007825032230
         H           -0.687702926043    -2.502085576125     0.291004667240     1.007825032230
         H            1.575645073957    -2.127062576125    -0.525083332760     1.007825032230
         H            5.171133073957     0.835863423875    -0.256160332760     1.007825032230
         H            4.698951073957    -0.507825576125     0.828205667240     1.007825032230
         H            6.054023073957    -0.718111576125    -0.320043332760     1.007825032230

  Nuclear repulsion = 1177.014404787658350

  ==> Basis Set <==

  Basis Set: 6-31+G*
    Blend: 6-31+G*
    Number of shells: 144
    Number of basis function: 322
    Number of Cartesian functions: 322
    Spherical Harmonics?: false
    Max angular momentum: 2

  ==> DFJKGrad: Density-Fitted SCF Gradients <==

    Gradient:                    1
    J tasked:                  Yes
    K tasked:                  Yes
    wK tasked:                 Yes
    Omega:               2.000E-01
    OpenMP threads:              8
    Integrals threads:           8
    Memory [MiB]:            11444
    Schwarz Cutoff:          0E+00
    Fitting Condition:       1E-10

   => Auxiliary Basis Set <=

  Basis Set: (6-31+G* AUX)
    Blend: HEAVY-AUG-CC-PVDZ-JKFIT
    Number of shells: 523
    Number of basis function: 1840
    Number of Cartesian functions: 1840
    Spherical Harmonics?: false
    Max angular momentum: 3

  ==> DFT Potential <==

   => Composite Functional: WB97X-D <= 

    wB97X-D Hyb-GGA Exchange-Correlation Functional

    J.-D. Chai and M. Head-Gordon, Phys. Chem. Chem. Phys. 10, 6615 (2008)

    Deriv               =              1
    GGA                 =           TRUE
    Meta                =          FALSE

    Exchange Hybrid     =           TRUE
    MP2 Hybrid          =          FALSE

   => Exchange-Correlation Functionals <=

    1.0000   wB97D range-separated functional

   => Exact (HF) Exchange <=

    0.7780            HF,LR [omega = 0.2000]
    0.2220               HF 

   => Molecular Quadrature <=

    Radial Scheme          =       TREUTLER
    Pruning Scheme         =           FLAT
    Nuclear Scheme         =       TREUTLER

    BS radius alpha        =              1
    Pruning alpha          =              1
    Radial Points          =             75
    Spherical Points       =            302
    Total Points           =         520862
    Total Blocks           =           3864
    Max Points             =            256
    Max Functions          =            284


  -Total Gradient:
     Atom            X                  Y                   Z
    ------   -----------------  -----------------  -----------------
       1       -0.007967885157    -0.011552773268     0.003288796375
       2        0.006836444690     0.012583647381    -0.003520504111
       3        0.013080770765    -0.003134804122    -0.004181549350
       4       -0.014875036856     0.002048697549    -0.011278768561
       5       -0.004721097664     0.003954526589     0.017696860737
       6       -0.003694249953    -0.024141140229     0.002630877059
       7       -0.005437487411     0.010019069002     0.001056550057
       8       -0.003184832690     0.011296942323     0.000092945309
       9        0.005999105366     0.004035213340    -0.002079859793
      10        0.017460928365    -0.006248019187    -0.016925172646
      11        0.002829341157    -0.005366220532     0.001048240187
      12        0.004716912460    -0.008206922655     0.001461355625
      13       -0.004769714303     0.007291739513     0.013577384866
      14        0.007356256551    -0.009275693867    -0.006551357360
      15       -0.006880886837    -0.022551818469     0.004027525398
      16        0.001879317865     0.031184040427    -0.002537877275
      17        0.000313429063     0.004302061913     0.000266862557
      18       -0.000642619758     0.003786923186     0.000171925483
      19       -0.003949737069     0.001564908524     0.001390577028
      20       -0.000351881280    -0.003299164129    -0.000251724171
      21       -0.003133603211     0.001112344730    -0.002317569897
      22       -0.002965392586    -0.000595911885     0.000064382171
      23        0.002918562804     0.000665480117     0.002623922881


*** tstop() called on cpu-spot-dy-c5n2xlarge-1 at Mon Jun 21 22:45:36 2021
Module time:
	user time   =     144.82 seconds =       2.41 minutes
	system time =       3.61 seconds =       0.06 minutes
	total time  =         23 seconds =       0.38 minutes
Total time:
	user time   =     671.76 seconds =      11.20 minutes
	system time =      13.69 seconds =       0.23 minutes
	total time  =         94 seconds =       1.57 minutes

			-----------------------------------------
			 OPTKING 2.0: for geometry optimizations 
			  - R.A. King,  Bethel University        
			-----------------------------------------
	At level 1: Red. Int., RFO, no backsteps, dynamic trust

	Internal coordinates to be generated automatically.
	Detected frag 1 with atoms:  1 2 3 4 5 6 7 8 9 10 11 12 13 14 15 16 17 18 19 20
	 21 22 23
	---Fragment 1 Bond Connectivity---
	 1 : 2 12 19
	 2 : 1 3 15
	 3 : 2 4 5 6
	 4 : 3
	 5 : 3
	 6 : 3 7 16
	 7 : 6 8 12
	 8 : 7 9 18
	 9 : 8 10 17
	 10 : 9 11 13
	 11 : 10 12 20
	 12 : 1 7 11
	 13 : 10 14
	 14 : 13 21 22 23
	 15 : 2
	 16 : 6
	 17 : 9
	 18 : 8
	 19 : 1
	 20 : 11
	 21 : 14
	 22 : 14
	 23 : 14

	Assuming in current code that numbering for constraints corresponds to unified fragment.
	Frozen dihedral atom list: 
	    11    10    13    14
	     9    10    13    14
	    21    14    13    10
	---Fragment 1 Geometry and Gradient---
	 N          -1.6766707034       -2.8556342670        0.5610458297
	 C          -4.0787526041       -2.3449301125        1.3814760963
	 C          -4.8395166579        0.5113172269        1.4649056150
	 F          -6.9318081960        0.8071481826       -0.0533400384
	 F          -5.5247540278        1.0662296344        3.9131459660
	 C          -2.8039924927        2.4900324453        0.6143153195
	 C          -0.3120144305        1.5170861626       -0.2076134999
	 C           1.5959607801        3.2141925041       -0.9871841081
	 C           3.9645983078        2.3335536735       -1.7725750729
	 C           4.4837797738       -0.2973305973       -1.7998476003
	 C           2.5864966336       -1.9954649498       -1.0044221898
	 C           0.2035519894       -1.1214269325       -0.2198494765
	 S           7.4183846069       -1.6318117234       -2.6889524040
	 C           9.5939979492       -0.4733944907       -0.3142998780
	 O          -5.4933543385       -4.0642558537        1.9988212756
	 O          -3.2846745684        4.7591494363        0.6420357120
	 H           5.3805587553        3.7082065975       -2.3600852561
	 H           1.1760900912        5.2315034889       -0.9623342096
	 H          -1.2995701859       -4.7282564813        0.5499191223
	 H           2.9775376607       -4.0195657206       -0.9922636920
	 H           9.7720252681        1.5795529494       -0.4840728731
	 H           8.8797306067       -0.9596512584        1.5650818866
	 H          11.4404455670       -1.3570342064       -0.6047942472
	            -0.0079678852       -0.0115527733        0.0032887964
	             0.0068364447        0.0125836474       -0.0035205041
	             0.0130807708       -0.0031348041       -0.0041815493
	            -0.0148750369        0.0020486975       -0.0112787686
	            -0.0047210977        0.0039545266        0.0176968607
	            -0.0036942500       -0.0241411402        0.0026308771
	            -0.0054374874        0.0100190690        0.0010565501
	            -0.0031848327        0.0112969423        0.0000929453
	             0.0059991054        0.0040352133       -0.0020798598
	             0.0174609284       -0.0062480192       -0.0169251726
	             0.0028293412       -0.0053662205        0.0010482402
	             0.0047169125       -0.0082069227        0.0014613556
	            -0.0047697143        0.0072917395        0.0135773849
	             0.0073562566       -0.0092756939       -0.0065513574
	            -0.0068808868       -0.0225518185        0.0040275254
	             0.0018793179        0.0311840404       -0.0025378773
	             0.0003134291        0.0043020619        0.0002668626
	            -0.0006426198        0.0037869232        0.0001719255
	            -0.0039497371        0.0015649085        0.0013905770
	            -0.0003518813       -0.0032991641       -0.0002517242
	            -0.0031336032        0.0011123447       -0.0023175699
	            -0.0029653926       -0.0005959119        0.0000643822
	             0.0029185628        0.0006654801        0.0026239229

	Previous optimization step data not found.  Starting new optimization.

	---Fragment 1 Intrafragment Coordinates---
	 - Coordinate -           - BOHR/RAD -       - ANG/DEG -
	 R(1,2)           =         2.589193	       1.370142
	 R(1,12)          =         2.674418	       1.415241
	 R(1,19)          =         1.910247	       1.010859
	 R(2,3)           =         2.957004	       1.564779
	 R(2,15)          =         2.310475	       1.222651
	 R(3,4)           =         2.601974	       1.376905
	 R(3,5)           =         2.602183	       1.377016
	 R(3,6)           =         2.963474	       1.568203
	 R(6,7)           =         2.798597	       1.480954
	 R(6,16)          =         2.319637	       1.227499
	 R(7,8)           =         2.669882	       1.412841
	 R(7,12)          =         2.688440	       1.422661
	 R(8,9)           =         2.646282	       1.400352
	 R(8,18)          =         2.060692	       1.090471
	 R(9,10)          =         2.681762	       1.419127
	 R(9,17)          =         2.059073	       1.089615
	 R(10,11)         =         2.667592	       1.411629
	 R(10,13)         =         3.344137	       1.769641
	 R(11,12)         =         2.656675	       1.405852
	 R(11,20)         =         2.061564	       1.090933
	 R(13,14)         =         3.422601	       1.811163
	 R(14,21)         =         2.067634	       1.094145
	 R(14,22)         =         2.068502	       1.094604
	 R(14,23)         =         2.067505	       1.094076
	 B(1,2,3)         =         2.024332	     115.985697
	 B(1,2,15)        =         2.101218	     120.390922
	 B(1,12,7)        =         2.094682	     120.016456
	 B(1,12,11)       =         2.098437	     120.231602
	 B(2,1,12)        =         2.235535	     128.086702
	 B(2,1,19)        =         1.958808	     112.231423
	 B(2,3,4)         =         1.875738	     107.471857
	 B(2,3,5)         =         1.875779	     107.474204
	 B(2,3,6)         =         2.048946	     117.395950
	 B(3,2,15)        =         2.157635	     123.623359
	 B(3,6,7)         =         2.053058	     117.631537
	 B(3,6,16)        =         2.102954	     120.490385
	 B(4,3,5)         =         1.889129	     108.239127
	 B(4,3,6)         =         1.884866	     107.994892
	 B(5,3,6)         =         1.884447	     107.970846
	 B(6,7,8)         =         2.095667	     120.072886
	 B(6,7,12)        =         2.109817	     120.883636
	 B(7,6,16)        =         2.127172	     121.878001
	 B(7,8,9)         =         2.111544	     120.982534
	 B(7,8,18)        =         2.063646	     118.238221
	 B(7,12,11)       =         2.090063	     119.751795
	 B(8,7,12)        =         2.077696	     119.043229
	 B(8,9,10)        =         2.097601	     120.183663
	 B(8,9,17)        =         2.069210	     118.557026
	 B(9,8,18)        =         2.107995	     120.779241
	 B(9,10,11)       =         2.075762	     118.932393
	 B(9,10,13)       =         2.170106	     124.337934
	 B(10,9,17)       =         2.116371	     121.259136
	 B(10,11,12)      =         2.113647	     121.103053
	 B(10,11,20)      =         2.085023	     119.463037
	 B(10,13,14)      =         1.811399	     103.785540
	 B(11,10,13)      =         2.036872	     116.704193
	 B(12,1,19)       =         2.088843	     119.681866
	 B(12,11,20)      =         2.084510	     119.433602
	 B(13,14,21)      =         1.911149	     109.500774
	 B(13,14,22)      =         1.908497	     109.348821
	 B(13,14,23)      =         1.902395	     108.999229
	 B(21,14,22)      =         1.915312	     109.739318
	 B(21,14,23)      =         1.913384	     109.628843
	 B(22,14,23)      =         1.913012	     109.607492
	 D(1,2,3,4)       =         2.126036	     121.812898
	 D(1,2,3,5)       =        -2.127317	    -121.886311
	 D(1,2,3,6)       =        -0.000902	      -0.051658
	 D(1,12,7,6)      =        -0.000372	      -0.021309
	 D(1,12,7,8)      =         3.138053	     179.797170
	 D(1,12,11,10)    =         3.137101	     179.742648
	 D(1,12,11,20)    =        -0.008036	      -0.460407
	 D(2,1,12,7)      =         0.000211	       0.012063
	 D(2,1,12,11)     =         3.139364	     179.872280
	 D(2,3,6,7)       =         0.000760	       0.043568
	 D(2,3,6,16)      =        -3.139103	    -179.857345
	 D(3,2,1,12)      =         0.000449	       0.025715
	 D(3,2,1,19)      =         3.141422	     179.990241
	 D(3,6,7,8)       =        -3.138525	    -179.824231
	 D(3,6,7,12)      =        -0.000133	      -0.007612
	 D(4,3,2,15)      =        -1.016502	     -58.241255
	 D(4,3,6,7)       =        -2.121456	    -121.550482
	 D(4,3,6,16)      =         1.021866	      58.548605
	 D(5,3,2,15)      =         1.013330	      58.059537
	 D(5,3,6,7)       =         2.122692	     121.621303
	 D(5,3,6,16)      =        -1.017171	     -58.279610
	 D(6,3,2,15)      =         3.139746	     179.894190
	 D(6,7,8,9)       =        -3.141001	    -179.966087
	 D(6,7,8,18)      =         0.000210	       0.012061
	 D(6,7,12,11)     =        -3.139537	    -179.882200
	 D(7,8,9,10)      =         0.001609	       0.092208
	 D(7,8,9,17)      =         3.140585	     179.942251
	 D(7,12,1,19)     =        -3.140722	    -179.950141
	 D(7,12,11,10)    =        -0.006925	      -0.396765
	 D(7,12,11,20)    =         3.131124	     179.400181
	 D(8,7,6,16)      =         0.001313	       0.075219
	 D(8,7,12,11)     =        -0.001112	      -0.063721
	 D(8,9,10,11)     =        -0.009470	      -0.542615
	 D(8,9,10,13)     =        -3.117905	    -178.642781
	 D(9,8,7,12)      =         0.003734	       0.213929
	 D(9,10,11,12)    =         0.012177	       0.697703
	 D(9,10,11,20)    =        -3.125870	    -179.099184
	*D(9,10,13,14)    =         1.118538	      64.087530
	 D(10,9,8,18)     =        -3.139592	    -179.885384
	*D(10,13,14,21)   =        -1.144716	     -65.587407
	 D(10,13,14,22)   =         0.954416	      54.684024
	 D(10,13,14,23)   =         3.045421	     174.489755
	 D(11,10,9,17)    =         3.134811	     179.611467
	*D(11,10,13,14)   =        -1.990570	    -114.051244
	 D(11,12,1,19)    =        -0.001569	      -0.089924
	 D(12,1,2,15)     =        -3.140231	    -179.922009
	 D(12,7,6,16)     =         3.139705	     179.891838
	 D(12,7,8,18)     =        -3.138240	    -179.807924
	 D(12,11,10,13)   =         3.123122	     178.941708
	 D(13,10,9,17)    =         0.026377	       1.511300
	 D(13,10,11,20)   =        -0.014926	      -0.855179
	 D(15,2,1,19)     =         0.000742	       0.042517
	 D(17,9,8,18)     =        -0.000617	      -0.035341

	Current energy   :     -1188.1129484313

	Generating empirical Hessian (Schlegel '84) for each fragment.
	Taking RFO optimization step.
	Going to follow RFO solution 1.
	Using RFO vector 1.
	Norm of target step-size    0.20840
	Projected energy change by RFO approximation:        -0.0133576737

	Back-transformation to cartesian coordinates...
	Successfully converged to displaced geometry.

	Back-transformation to cartesian coordinates to adjust frozen coordinates...
	Successfully converged to displaced geometry.

	--- Internal Coordinate Step in ANG or DEG, aJ/ANG or AJ/DEG ---
	 ---------------------------------------------------------------------------
	   Coordinate                Previous        Force       Change         New 
	   ----------                --------       ------       ------       ------
	    1 R(1,2)          =      1.370142    -0.008548    -0.001012     1.369130
	    2 R(1,12)         =      1.415241    -0.126308    -0.018712     1.396529
	    3 R(1,19)         =      1.010859     0.019345     0.002638     1.013497
	    4 R(2,3)          =      1.564779    -0.097069    -0.021573     1.543206
	    5 R(2,15)         =      1.222651    -0.181910    -0.012236     1.210414
	    6 R(3,4)          =      1.376905    -0.154994    -0.019542     1.357363
	    7 R(3,5)          =      1.377016    -0.154441    -0.019481     1.357536
	    8 R(3,6)          =      1.568203    -0.091211    -0.020600     1.547602
	    9 R(6,7)          =      1.480954    -0.059483    -0.010876     1.470078
	   10 R(6,16)         =      1.227499    -0.248081    -0.017059     1.210440
	   11 R(7,8)          =      1.412841    -0.107914    -0.015595     1.397246
	   12 R(7,12)         =      1.422661    -0.136451    -0.020875     1.401786
	   13 R(8,9)          =      1.400352    -0.128247    -0.017686     1.382666
	   14 R(8,18)         =      1.090471    -0.031840    -0.005676     1.084795
	   15 R(9,10)         =      1.419127    -0.135820    -0.019855     1.399272
	   16 R(9,17)         =      1.089615    -0.024692    -0.004390     1.085225
	   17 R(10,11)        =      1.411629    -0.117527    -0.016637     1.394991
	   18 R(10,13)        =      1.769641     0.020031     0.004298     1.773940
	   19 R(11,12)        =      1.405852    -0.103323    -0.014350     1.391502
	   20 R(11,20)        =      1.090933    -0.025929    -0.004629     1.086303
	   21 R(13,14)        =      1.811163     0.035573     0.008613     1.819776
	   22 R(14,21)        =      1.094145    -0.008723    -0.001574     1.092571
	   23 R(14,22)        =      1.094604    -0.010328    -0.001866     1.092738
	   24 R(14,23)        =      1.094076    -0.015669    -0.002826     1.091251
	   25 B(1,2,3)        =    115.985697    -0.000077    -0.095170   115.890527
	   26 B(1,2,15)       =    120.390922     0.000845     2.390704   122.781627
	   27 B(1,12,7)       =    120.016456     0.000261     0.521854   120.538310
	   28 B(1,12,11)      =    120.231602    -0.000345    -0.852041   119.379561
	   29 B(2,1,12)       =    128.086702    -0.000167    -0.593986   127.492716
	   30 B(2,1,19)       =    112.231423     0.000364     1.534853   113.766275
	   31 B(2,3,4)        =    107.471857    -0.000008    -0.053625   107.418232
	   32 B(2,3,5)        =    107.474204    -0.000016    -0.108366   107.365838
	   33 B(2,3,6)        =    117.395950     0.000052     0.413013   117.808963
	   34 B(3,2,15)       =    123.623359    -0.000768    -2.295539   121.327820
	   35 B(3,6,7)        =    117.631537    -0.000112    -0.234222   117.397316
	   36 B(3,6,16)       =    120.490385    -0.000718    -2.113979   118.376406
	   37 B(4,3,5)        =    108.239127    -0.000014    -0.191460   108.047667
	   38 B(4,3,6)        =    107.994892    -0.000006    -0.010586   107.984306
	   39 B(5,3,6)        =    107.970846    -0.000011    -0.094267   107.876578
	   40 B(6,7,8)        =    120.072886    -0.000054    -0.020055   120.052831
	   41 B(6,7,12)       =    120.883636     0.000043    -0.011711   120.871925
	   42 B(7,6,16)       =    121.878001     0.000829     2.347869   124.225870
	   43 B(7,8,9)        =    120.982534     0.000005     0.002923   120.985458
	   44 B(7,8,18)       =    118.238221    -0.000007    -0.056029   118.182192
	   45 B(7,12,11)      =    119.751795     0.000084     0.321287   120.073082
	   46 B(8,7,12)       =    119.043229     0.000011     0.031318   119.074547
	   47 B(8,9,10)       =    120.183663    -0.000098    -0.338696   119.844968
	   48 B(8,9,17)       =    118.557026     0.000290     1.228925   119.785951
	   49 B(9,8,18)       =    120.779241     0.000003     0.051293   120.830534
	   50 B(9,10,11)      =    118.932393     0.000259     0.744897   119.677290
	   51 B(9,10,13)      =    124.337934    -0.000756    -2.180415   122.157519
	   52 B(10,9,17)      =    121.259136    -0.000192    -0.895353   120.363783
	   53 B(10,11,12)     =    121.103053    -0.000261    -0.784727   120.318326
	   54 B(10,11,20)     =    119.463037     0.000063     0.079804   119.542841
	   55 B(10,13,14)     =    103.785540    -0.001379    -3.981746    99.803794
	   56 B(11,10,13)     =    116.704193     0.000497     1.435022   118.139215
	   57 B(12,1,19)      =    119.681866    -0.000196    -0.940863   118.741003
	   58 B(12,11,20)     =    119.433602     0.000197     0.704280   120.137881
	   59 B(13,14,21)     =    109.500774     0.000500     2.425650   111.926424
	   60 B(13,14,22)     =    109.348821     0.000300     1.207420   110.556241
	   61 B(13,14,23)     =    108.999229    -0.000574    -2.873543   106.125686
	   62 B(21,14,22)     =    109.739318    -0.000179     0.093276   109.832595
	   63 B(21,14,23)     =    109.628843    -0.000014    -0.617138   109.011705
	   64 B(22,14,23)     =    109.607492    -0.000034    -0.321270   109.286222
	   65 D(1,2,3,4)      =    121.812898     0.000004     0.313925   122.126822
	   66 D(1,2,3,5)      =   -121.886311    -0.000002     0.009609  -121.876701
	   67 D(1,2,3,6)      =     -0.051658    -0.000000     0.083702     0.032044
	   68 D(1,12,7,6)     =     -0.021309    -0.000002    -0.163345    -0.184653
	   69 D(1,12,7,8)     =    179.797170    -0.000003    -0.285383   179.511787
	   70 D(1,12,11,10)   =    179.742648    -0.000004    -0.409738   179.332910
	   71 D(1,12,11,20)   =     -0.460407     0.000000     0.149837    -0.310569
	   72 D(2,1,12,7)     =      0.012063     0.000002     0.138316     0.150378
	   73 D(2,1,12,11)    =    179.872280    -0.000007    -0.815216   179.057064
	   74 D(2,3,6,7)      =      0.043568     0.000000    -0.115335    -0.071767
	   75 D(2,3,6,16)     =   -179.857345     0.000001     0.008330  -179.849014
	   76 D(3,2,1,12)     =      0.025715    -0.000001    -0.096494    -0.070779
	   77 D(3,2,1,19)     =    179.990241    -0.000001    -0.088878   179.901363
	   78 D(3,6,7,8)      =   -179.824231     0.000002     0.278839  -179.545392
	   79 D(3,6,7,12)     =     -0.007612     0.000001     0.155706     0.148094
	   80 D(4,3,2,15)     =    -58.241255     0.000004     0.310404   -57.930851
	   81 D(4,3,6,7)      =   -121.550482    -0.000004    -0.326364  -121.876846
	   82 D(4,3,6,16)     =     58.548605    -0.000004    -0.202698    58.345906
	   83 D(5,3,2,15)     =     58.059537    -0.000002     0.006089    58.065626
	   84 D(5,3,6,7)      =    121.621303     0.000002    -0.046193   121.575110
	   85 D(5,3,6,16)     =    -58.279610     0.000002     0.077473   -58.202138
	   86 D(6,3,2,15)     =    179.894190    -0.000000     0.080182   179.974372
	   87 D(6,7,8,9)      =   -179.966087     0.000001     0.021983  -179.944105
	   88 D(6,7,8,18)     =      0.012061    -0.000004    -0.442436    -0.430375
	   89 D(6,7,12,11)    =   -179.882200     0.000007     0.798444  -179.083756
	   90 D(7,8,9,10)     =      0.092208    -0.000003    -0.278928    -0.186720
	   91 D(7,8,9,17)     =    179.942251    -0.000010    -0.963185   178.979066
	   92 D(7,12,1,19)    =   -179.950141     0.000002     0.129598  -179.820543
	   93 D(7,12,11,10)   =     -0.396765    -0.000012    -1.358463    -1.755227
	   94 D(7,12,11,20)   =    179.400181    -0.000008    -0.798887   178.601294
	   95 D(8,7,6,16)     =      0.075219     0.000001     0.142353     0.217572
	   96 D(8,7,12,11)    =     -0.063721     0.000006     0.676406     0.612685
	   97 D(8,9,10,11)    =     -0.542615    -0.000004    -0.406514    -0.949128
	   98 D(8,9,10,13)    =   -178.642781    -0.000005    -0.417312  -179.060094
	   99 D(9,8,7,12)     =      0.213929     0.000002     0.142985     0.356913
	  100 D(9,10,11,12)   =      0.697703     0.000012     1.223392     1.921095
	  101 D(9,10,11,20)   =   -179.099184     0.000007     0.665876  -178.433308
	  102 *D(9,10,13,14)  =     64.087530     0.000000    -0.000000    64.087530
	  103 D(10,9,8,18)    =   -179.885384     0.000002     0.197826  -179.687558
	  104 *D(10,13,14,21) =    -65.587407    -0.000000    -0.000000   -65.587407
	  105 D(10,13,14,22)  =     54.684024     0.000062     2.517794    57.201818
	  106 D(10,13,14,23)  =    174.489755     0.000015     1.111556   175.601310
	  107 D(11,10,9,17)   =    179.611467     0.000002     0.278506   179.889973
	  108 *D(11,10,13,14) =   -114.051244     0.000000     0.000000  -114.051244
	  109 D(11,12,1,19)   =     -0.089924    -0.000007    -0.823933    -0.913857
	  110 D(12,1,2,15)    =   -179.922009    -0.000001    -0.090173  -180.012182
	  111 D(12,7,6,16)    =    179.891838    -0.000000     0.019220   179.911058
	  112 D(12,7,8,18)    =   -179.807924    -0.000003    -0.321434  -180.129357
	  113 D(12,11,10,13)  =    178.941708     0.000007     1.165820   180.107528
	  114 D(13,10,9,17)   =      1.511300     0.000002     0.267707     1.779008
	  115 D(13,10,11,20)  =     -0.855179     0.000003     0.608304    -0.246875
	  116 D(15,2,1,19)    =      0.042517    -0.000001    -0.082557    -0.040040
	  117 D(17,9,8,18)    =     -0.035341    -0.000005    -0.486431    -0.521773
	 ---------------------------------------------------------------------------
	Successfully symmetrized geometry.

  ==> Convergence Check <==

  Measures of convergence in internal coordinates in au.
  Criteria marked as inactive (o), active & met (*), and active & unmet ( ).
  --------------------------------------------------------------------------------------------- ~
   Step     Total Energy     Delta E     MAX Force     RMS Force      MAX Disp      RMS Disp    ~
  --------------------------------------------------------------------------------------------- ~
    Convergence Criteria             o    2.50e-03 *    1.70e-03 *    1.00e-02 *    6.70e-03 *  ~
  --------------------------------------------------------------------------------------------- ~
      1   -1188.11294843   -1.19e+03 o    3.01e-02      6.67e-03      6.95e-02      1.92e-02    ~
  ---------------------------------------------------------------------------------------------

	Writing optimization data to binary file.
	Structure for next step:
	Cartesian Geometry (in Angstrom)
	    N    -0.8348033023  -1.5542693456   0.1975553099
	    C    -2.1280709769  -1.3067035777   0.5726393262
	    C    -2.5489172708   0.1777290676   0.6014883203
	    F    -3.6088795068   0.3158872727  -0.2350681536
	    F    -2.9691126347   0.4553293491   1.8621535614
	    C    -1.4899450110   1.2361475067   0.2098236765
	    C    -0.1531199206   0.7502918278  -0.1616211617
	    C     0.8480481357   1.6583924739  -0.5156141198
	    C     2.1116763335   1.2226228308  -0.8693295399
	    C     2.4009047243  -0.1464293518  -0.8714702627
	    C     1.4163140370  -1.0609471948  -0.4969847181
	    C     0.1398392628  -0.6205397276  -0.1609325309
	    S     4.0072309322  -0.7714363963  -1.2909268678
	    C     4.9823394467  -0.0580743961   0.0699047120
	    O    -2.9049032946  -2.1869208251   0.8673462232
	    O    -1.8082132378   2.4037931857   0.2315822538
	    H     2.8697984137   1.9439120756  -1.1569151023
	    H     0.6049408915   2.7155933355  -0.5133208587
	    H    -0.5926132828  -2.5383835119   0.1912460329
	    H     1.6508373691  -2.1214007493  -0.4748147806
	    H     5.0147503018   1.0328916062   0.0203616115
	    H     4.5808987265  -0.3735567289   1.0360274295
	    H     5.9945264953  -0.4493709803  -0.0449520108
			--------------------------
			 OPTKING Finished Execution 
			--------------------------

    Structure for next step:
    Molecular point group: c1
    Full point group: C1

    Geometry (in Angstrom), charge = 0, multiplicity = 1:

    N           -0.848390220136    -1.530126842183     0.240485841305
    C           -2.141657899821    -1.282561073280     0.615569859160
    C           -2.562504195420     0.201871577855     0.644418853328
    F           -3.622466435569     0.340029783479    -0.192137623818
    F           -2.982699560918     0.479471860434     1.905084099360
    C           -1.503531931470     1.260290021062     0.252754207948
    C           -0.166706835837     0.774434340295    -0.118690631644
    C            0.834461224427     1.682534989976    -0.472683591140
    C            2.098089427194     1.246765345088    -0.826399012685
    C            2.387317819177    -0.122286842796    -0.828539735506
    C            1.402727127938    -1.036804689416    -0.454054189359
    C            0.126252348738    -0.596397220538    -0.118002000901
    S            3.993644033374    -0.747293889840    -1.247996342235
    C            4.968752551730    -0.033931886787     0.112835242903
    O           -2.918490220567    -2.162778324165     0.910276757322
    O           -1.821800159541     2.427935704689     0.274512785422
    H            2.856211510400     1.968054592749    -1.113984576189
    H            0.591353979279     2.739735855734    -0.470390330088
    H           -0.606200199747    -2.514241012363     0.234176564317
    H            1.637250461002    -2.097258248092    -0.431884251807
    H            5.001163406906     1.057034119788     0.063292142215
    H            4.567311829921    -0.349414220811     1.078957964226
    H            5.980939604240    -0.425228472565    -0.002021480292

gradient() will perform analytic gradient computation.

*** tstart() called on cpu-spot-dy-c5n2xlarge-1
*** at Mon Jun 21 22:45:36 2021

   => Loading Basis Set <=

    Name: 6-31+G*
    Role: ORBITAL
    Keyword: BASIS
    atoms 1             entry N          line   138 file /fsx/users/francis/anaconda3/envs/poltype-dev/share/psi4/basis/6-31pgs.gbs 
    atoms 2-3, 6-12, 14 entry C          line   119 file /fsx/users/francis/anaconda3/envs/poltype-dev/share/psi4/basis/6-31pgs.gbs 
    atoms 4-5           entry F          line   176 file /fsx/users/francis/anaconda3/envs/poltype-dev/share/psi4/basis/6-31pgs.gbs 
    atoms 13            entry S          line   344 file /fsx/users/francis/anaconda3/envs/poltype-dev/share/psi4/basis/6-31pgs.gbs 
    atoms 15-16         entry O          line   157 file /fsx/users/francis/anaconda3/envs/poltype-dev/share/psi4/basis/6-31pgs.gbs 
    atoms 17-23         entry H          line    46 file /fsx/users/francis/anaconda3/envs/poltype-dev/share/psi4/basis/6-31pgs.gbs 


         ---------------------------------------------------------
                                   SCF
               by Justin Turney, Rob Parrish, Andy Simmonett
                          and Daniel G. A. Smith
                              RKS Reference
                        8 Threads,  15258 MiB Core
         ---------------------------------------------------------

  ==> Geometry <==

    Molecular point group: c1
    Full point group: C1

    Geometry (in Angstrom), charge = 0, multiplicity = 1:

       Center              X                  Y                   Z               Mass       
    ------------   -----------------  -----------------  -----------------  -----------------
         N           -0.848390220136    -1.530126842183     0.240485841305    14.003074004430
         C           -2.141657899821    -1.282561073280     0.615569859160    12.000000000000
         C           -2.562504195420     0.201871577855     0.644418853328    12.000000000000
         F           -3.622466435569     0.340029783479    -0.192137623818    18.998403162730
         F           -2.982699560918     0.479471860434     1.905084099360    18.998403162730
         C           -1.503531931470     1.260290021062     0.252754207948    12.000000000000
         C           -0.166706835837     0.774434340295    -0.118690631644    12.000000000000
         C            0.834461224427     1.682534989976    -0.472683591140    12.000000000000
         C            2.098089427194     1.246765345088    -0.826399012685    12.000000000000
         C            2.387317819177    -0.122286842796    -0.828539735506    12.000000000000
         C            1.402727127938    -1.036804689416    -0.454054189359    12.000000000000
         C            0.126252348738    -0.596397220538    -0.118002000901    12.000000000000
         S            3.993644033374    -0.747293889840    -1.247996342235    31.972071174400
         C            4.968752551730    -0.033931886787     0.112835242903    12.000000000000
         O           -2.918490220567    -2.162778324165     0.910276757322    15.994914619570
         O           -1.821800159541     2.427935704689     0.274512785422    15.994914619570
         H            2.856211510400     1.968054592749    -1.113984576189     1.007825032230
         H            0.591353979279     2.739735855734    -0.470390330088     1.007825032230
         H           -0.606200199747    -2.514241012363     0.234176564317     1.007825032230
         H            1.637250461002    -2.097258248092    -0.431884251807     1.007825032230
         H            5.001163406906     1.057034119788     0.063292142215     1.007825032230
         H            4.567311829921    -0.349414220811     1.078957964226     1.007825032230
         H            5.980939604240    -0.425228472565    -0.002021480292     1.007825032230

  Running in c1 symmetry.

  Rotational constants: A =      0.03796  B =      0.00841  C =      0.00736 [cm^-1]
  Rotational constants: A =   1137.87641  B =    252.19214  C =    220.70031 [MHz]
  Nuclear repulsion = 1190.028034223858867

  Charge       = 0
  Multiplicity = 1
  Electrons    = 124
  Nalpha       = 62
  Nbeta        = 62

  ==> Algorithm <==

  SCF Algorithm Type is DF.
  DIIS enabled.
  MOM disabled.
  Fractional occupation disabled.
  Guess Type is READ.
  Energy threshold   = 1.00e-08
  Density threshold  = 1.00e-08
  Integral threshold = 0.00e+00

  ==> Primary Basis <==

  Basis Set: 6-31+G*
    Blend: 6-31+G*
    Number of shells: 144
    Number of basis function: 322
    Number of Cartesian functions: 322
    Spherical Harmonics?: false
    Max angular momentum: 2

  ==> DFT Potential <==

   => Composite Functional: WB97X-D <= 

    wB97X-D Hyb-GGA Exchange-Correlation Functional

    J.-D. Chai and M. Head-Gordon, Phys. Chem. Chem. Phys. 10, 6615 (2008)

    Deriv               =              1
    GGA                 =           TRUE
    Meta                =          FALSE

    Exchange Hybrid     =           TRUE
    MP2 Hybrid          =          FALSE

   => Exchange-Correlation Functionals <=

    1.0000   wB97D range-separated functional

   => Exact (HF) Exchange <=

    0.7780            HF,LR [omega = 0.2000]
    0.2220               HF 

   => Molecular Quadrature <=

    Radial Scheme          =       TREUTLER
    Pruning Scheme         =           FLAT
    Nuclear Scheme         =       TREUTLER

    BS radius alpha        =              1
    Pruning alpha          =              1
    Radial Points          =             75
    Spherical Points       =            302
    Total Points           =         520859
    Total Blocks           =           3887
    Max Points             =            256
    Max Functions          =            287

   => WB97X-D: Empirical Dispersion <=

    Chai and Head-Gordon Dispersion Correction
    Chai, J.-D.; Head-Gordon, M. (2010), J. Chem. Phys., 132: 6615-6620

        s6 =       1.000000

   => Loading Basis Set <=

    Name: (6-31+G* AUX)
    Role: JKFIT
    Keyword: DF_BASIS_SCF
    atoms 1             entry N          line   252 file /fsx/users/francis/anaconda3/envs/poltype-dev/share/psi4/basis/heavy-aug-cc-pvdz-jkfit.gbs 
    atoms 2-3, 6-12, 14 entry C          line   194 file /fsx/users/francis/anaconda3/envs/poltype-dev/share/psi4/basis/heavy-aug-cc-pvdz-jkfit.gbs 
    atoms 4-5           entry F          line   368 file /fsx/users/francis/anaconda3/envs/poltype-dev/share/psi4/basis/heavy-aug-cc-pvdz-jkfit.gbs 
    atoms 13            entry S          line   730 file /fsx/users/francis/anaconda3/envs/poltype-dev/share/psi4/basis/heavy-aug-cc-pvdz-jkfit.gbs 
    atoms 15-16         entry O          line   310 file /fsx/users/francis/anaconda3/envs/poltype-dev/share/psi4/basis/heavy-aug-cc-pvdz-jkfit.gbs 
    atoms 17-23         entry H          line   116 file /fsx/users/francis/anaconda3/envs/poltype-dev/share/psi4/basis/heavy-aug-cc-pvdz-jkfit.gbs 

   => Loading Basis Set <=

    Name: 6-31+G*
    Role: ORBITAL
    Keyword: BASIS
    atoms 1             entry N          line   138 file /fsx/users/francis/anaconda3/envs/poltype-dev/share/psi4/basis/6-31pgs.gbs 
    atoms 2-3, 6-12, 14 entry C          line   119 file /fsx/users/francis/anaconda3/envs/poltype-dev/share/psi4/basis/6-31pgs.gbs 
    atoms 4-5           entry F          line   176 file /fsx/users/francis/anaconda3/envs/poltype-dev/share/psi4/basis/6-31pgs.gbs 
    atoms 13            entry S          line   344 file /fsx/users/francis/anaconda3/envs/poltype-dev/share/psi4/basis/6-31pgs.gbs 
    atoms 15-16         entry O          line   157 file /fsx/users/francis/anaconda3/envs/poltype-dev/share/psi4/basis/6-31pgs.gbs 
    atoms 17-23         entry H          line    46 file /fsx/users/francis/anaconda3/envs/poltype-dev/share/psi4/basis/6-31pgs.gbs 

  Reading orbitals from file 180, no projection.

  ==> Pre-Iterations <==

   -------------------------------------------------------
    Irrep   Nso     Nmo     Nalpha   Nbeta   Ndocc  Nsocc
   -------------------------------------------------------
     A        322     322       0       0       0       0
   -------------------------------------------------------
    Total     322     322      62      62      62       0
   -------------------------------------------------------

  ==> Integral Setup <==

  ==> DiskDFJK: Density-Fitted J/K Matrices <==

    J tasked:                  Yes
    K tasked:                  Yes
    wK tasked:                 Yes
    Omega:               2.000E-01
    OpenMP threads:              8
    Integrals threads:           8
    Memory [MiB]:             8415
    Algorithm:                Core
    Integral Cache:           NONE
    Schwarz Cutoff:          1E-12
    Fitting Condition:       1E-10

   => Auxiliary Basis Set <=

  Basis Set: (6-31+G* AUX)
    Blend: HEAVY-AUG-CC-PVDZ-JKFIT
    Number of shells: 523
    Number of basis function: 1840
    Number of Cartesian functions: 1840
    Spherical Harmonics?: false
    Max angular momentum: 3

  Cached 100.0% of DFT collocation blocks in 2.958 [GiB].

  Minimum eigenvalue in the overlap matrix is 5.7123871034E-07.
  Using Symmetric Orthogonalization.

  SCF Guess: Orbitals guess was supplied from a previous computation.

  ==> Iterations <==

                           Total Energy        Delta E     RMS |[F,P]|

   @DF-RKS iter   0: -1188.28618091631370   -1.18829e+03   1.55720e-03 
   @DF-RKS iter   1: -1188.11408211977187    1.72099e-01   2.70443e-04 DIIS
   @DF-RKS iter   2: -1188.11518091939456   -1.09880e-03   3.04801e-04 DIIS
   @DF-RKS iter   3: -1188.11927264054998   -4.09172e-03   6.82138e-05 DIIS
   @DF-RKS iter   4: -1188.11945090421591   -1.78264e-04   2.76034e-05 DIIS
   @DF-RKS iter   5: -1188.11949299503135   -4.20908e-05   7.26718e-06 DIIS
   @DF-RKS iter   6: -1188.11949667134331   -3.67631e-06   2.49766e-06 DIIS
   @DF-RKS iter   7: -1188.11949725659633   -5.85253e-07   1.11438e-06 DIIS
   @DF-RKS iter   8: -1188.11949743181617   -1.75220e-07   3.93533e-07 DIIS
   @DF-RKS iter   9: -1188.11949747500944   -4.31933e-08   1.87351e-07 DIIS
   @DF-RKS iter  10: -1188.11949748269694   -7.68750e-09   8.91960e-08 DIIS
   @DF-RKS iter  11: -1188.11949748439542   -1.69848e-09   3.00444e-08 DIIS
   @DF-RKS iter  12: -1188.11949748454276   -1.47338e-10   1.85938e-08 DIIS
   @DF-RKS iter  13: -1188.11949748457891   -3.61524e-11   7.32479e-09 DIIS
  Energy and wave function converged.


  ==> Post-Iterations <==

    Orbital Energies [Eh]
    ---------------------

    Doubly Occupied:                                                      

       1A    -89.072916     2A    -24.874632     3A    -24.874478  
       4A    -19.308569     5A    -19.295020     6A    -14.543875  
       7A    -10.503580     8A    -10.455795     9A    -10.433316  
      10A    -10.407961    11A    -10.380472    12A    -10.354001  
      13A    -10.351584    14A    -10.350752    15A    -10.348519  
      16A    -10.342686    17A     -8.090235    18A     -6.041009  
      19A     -6.036965    20A     -6.029922    21A     -1.393333  
      22A     -1.332209    23A     -1.195795    24A     -1.188207  
      25A     -1.102385    26A     -1.007349    27A     -0.941784  
      28A     -0.907380    29A     -0.890998    30A     -0.868315  
      31A     -0.794856    32A     -0.769572    33A     -0.756781  
      34A     -0.744020    35A     -0.699885    36A     -0.685495  
      37A     -0.672964    38A     -0.648459    39A     -0.631540  
      40A     -0.593153    41A     -0.583077    42A     -0.571629  
      43A     -0.564301    44A     -0.560223    45A     -0.558421  
      46A     -0.554888    47A     -0.539867    48A     -0.538180  
      49A     -0.526098    50A     -0.519189    51A     -0.511476  
      52A     -0.500525    53A     -0.497461    54A     -0.480101  
      55A     -0.477010    56A     -0.444012    57A     -0.426013  
      58A     -0.398450    59A     -0.376815    60A     -0.369064  
      61A     -0.342453    62A     -0.329287  

    Virtual:                                                              

      63A     -0.049753    64A      0.012895    65A      0.042616  
      66A      0.044119    67A      0.056561    68A      0.064956  
      69A      0.065416    70A      0.071323    71A      0.077238  
      72A      0.089544    73A      0.093467    74A      0.096544  
      75A      0.105043    76A      0.111181    77A      0.114614  
      78A      0.116677    79A      0.123987    80A      0.132746  
      81A      0.133875    82A      0.140796    83A      0.143523  
      84A      0.150263    85A      0.155121    86A      0.164641  
      87A      0.168103    88A      0.176056    89A      0.177807  
      90A      0.179451    91A      0.184430    92A      0.191405  
      93A      0.196084    94A      0.200333    95A      0.204419  
      96A      0.207980    97A      0.212421    98A      0.217257  
      99A      0.227710   100A      0.233345   101A      0.235739  
     102A      0.238988   103A      0.246230   104A      0.249093  
     105A      0.249793   106A      0.252565   107A      0.258544  
     108A      0.262174   109A      0.269846   110A      0.274262  
     111A      0.281104   112A      0.285987   113A      0.290652  
     114A      0.294470   115A      0.297865   116A      0.306886  
     117A      0.308188   118A      0.312595   119A      0.315616  
     120A      0.320431   121A      0.328670   122A      0.331437  
     123A      0.332735   124A      0.342218   125A      0.355241  
     126A      0.359521   127A      0.368658   128A      0.378287  
     129A      0.382174   130A      0.384944   131A      0.391368  
     132A      0.392534   133A      0.396861   134A      0.408145  
     135A      0.410889   136A      0.415915   137A      0.423283  
     138A      0.435370   139A      0.444901   140A      0.450041  
     141A      0.459098   142A      0.469821   143A      0.475432  
     144A      0.495044   145A      0.506292   146A      0.517063  
     147A      0.530250   148A      0.534278   149A      0.546863  
     150A      0.548901   151A      0.556025   152A      0.582449  
     153A      0.604748   154A      0.607732   155A      0.622351  
     156A      0.642611   157A      0.660131   158A      0.677528  
     159A      0.701534   160A      0.708949   161A      0.725401  
     162A      0.740854   163A      0.746629   164A      0.756695  
     165A      0.770730   166A      0.785861   167A      0.797780  
     168A      0.802432   169A      0.809481   170A      0.821941  
     171A      0.837424   172A      0.867912   173A      0.873597  
     174A      0.882172   175A      0.888453   176A      0.898831  
     177A      0.914708   178A      0.918001   179A      0.935152  
     180A      0.944480   181A      0.960104   182A      0.972934  
     183A      0.975218   184A      0.984108   185A      1.016885  
     186A      1.029442   187A      1.043413   188A      1.055205  
     189A      1.062434   190A      1.074867   191A      1.081777  
     192A      1.091489   193A      1.115047   194A      1.150580  
     195A      1.165662   196A      1.171037   197A      1.195648  
     198A      1.205515   199A      1.207179   200A      1.213173  
     201A      1.225494   202A      1.248537   203A      1.265477  
     204A      1.278532   205A      1.293170   206A      1.321883  
     207A      1.327612   208A      1.333094   209A      1.343601  
     210A      1.384239   211A      1.398124   212A      1.410130  
     213A      1.414819   214A      1.418638   215A      1.444611  
     216A      1.448023   217A      1.463404   218A      1.469768  
     219A      1.474023   220A      1.481195   221A      1.500644  
     222A      1.513159   223A      1.521952   224A      1.529941  
     225A      1.558560   226A      1.607924   227A      1.628459  
     228A      1.657964   229A      1.671776   230A      1.680222  
     231A      1.713768   232A      1.745773   233A      1.758088  
     234A      1.758604   235A      1.765367   236A      1.767896  
     237A      1.780961   238A      1.786995   239A      1.799073  
     240A      1.827114   241A      1.837689   242A      1.875506  
     243A      1.888372   244A      1.896570   245A      1.913218  
     246A      1.914069   247A      1.922182   248A      1.955769  
     249A      1.967403   250A      1.971318   251A      1.981279  
     252A      2.020748   253A      2.043513   254A      2.052078  
     255A      2.064954   256A      2.068681   257A      2.092201  
     258A      2.115464   259A      2.117329   260A      2.138674  
     261A      2.173496   262A      2.176950   263A      2.182816  
     264A      2.215205   265A      2.227120   266A      2.234831  
     267A      2.255238   268A      2.267609   269A      2.278385  
     270A      2.284158   271A      2.318955   272A      2.328814  
     273A      2.338700   274A      2.347787   275A      2.360827  
     276A      2.381602   277A      2.390993   278A      2.431381  
     279A      2.478293   280A      2.487281   281A      2.527914  
     282A      2.556974   283A      2.604439   284A      2.654470  
     285A      2.687386   286A      2.691465   287A      2.730910  
     288A      2.747137   289A      2.762610   290A      2.781688  
     291A      2.792651   292A      2.839171   293A      2.840449  
     294A      2.878027   295A      2.927781   296A      2.970281  
     297A      2.990330   298A      3.052125   299A      3.154166  
     300A      3.187133   301A      3.221757   302A      3.254283  
     303A      3.371016   304A      3.421950   305A      3.513405  
     306A      3.524249   307A      4.047096   308A      4.301354  
     309A      4.314846   310A      4.355804   311A      4.367004  
     312A      4.392580   313A      4.429682   314A      4.484609  
     315A      4.490262   316A      4.533353   317A      4.599662  
     318A      4.820132   319A      4.884775   320A      5.162996  
     321A      5.714012   322A      7.259407  

    Final Occupation by Irrep:
              A 
    DOCC [    62 ]

  @DF-RKS Final Energy: -1188.11949748457891

   => Energetics <=

    Nuclear Repulsion Energy =           1190.0280342238588673
    One-Electron Energy =               -3993.9759430023377718
    Two-Electron Energy =                1705.4008839247469496
    DFT Exchange-Correlation Energy =     -89.5587835614250736
    Empirical Dispersion Energy =          -0.0136890694217066
    VV10 Nonlocal Energy =                  0.0000000000000000
    Total Energy =                      -1188.1194974845786874

Computation Completed


Properties will be evaluated at   0.000000,   0.000000,   0.000000 [a0]

Properties computed using the SCF density matrix

  Nuclear Dipole Moment: [e a0]
     X:    25.0918      Y:    -0.4321      Z:    -2.2456

  Electronic Dipole Moment: [e a0]
     X:   -22.3489      Y:     0.1130      Z:     2.0542

  Dipole Moment: [e a0]
     X:     2.7428      Y:    -0.3190      Z:    -0.1913     Total:     2.7679

  Dipole Moment: [D]
     X:     6.9716      Y:    -0.8109      Z:    -0.4863     Total:     7.0354


*** tstop() called on cpu-spot-dy-c5n2xlarge-1 at Mon Jun 21 22:46:38 2021
Module time:
	user time   =     467.36 seconds =       7.79 minutes
	system time =       6.73 seconds =       0.11 minutes
	total time  =         62 seconds =       1.03 minutes
Total time:
	user time   =    1140.93 seconds =      19.02 minutes
	system time =      20.51 seconds =       0.34 minutes
	total time  =        156 seconds =       2.60 minutes

*** tstart() called on cpu-spot-dy-c5n2xlarge-1
*** at Mon Jun 21 22:46:38 2021


         ------------------------------------------------------------
                                   SCF GRAD                          
                          Rob Parrish, Justin Turney,                
                       Andy Simmonett, and Alex Sokolov              
         ------------------------------------------------------------

  ==> Geometry <==

    Molecular point group: c1
    Full point group: C1

    Geometry (in Angstrom), charge = 0, multiplicity = 1:

       Center              X                  Y                   Z               Mass       
    ------------   -----------------  -----------------  -----------------  -----------------
         N           -0.848390220136    -1.530126842183     0.240485841305    14.003074004430
         C           -2.141657899821    -1.282561073280     0.615569859160    12.000000000000
         C           -2.562504195420     0.201871577855     0.644418853328    12.000000000000
         F           -3.622466435569     0.340029783479    -0.192137623818    18.998403162730
         F           -2.982699560918     0.479471860434     1.905084099360    18.998403162730
         C           -1.503531931470     1.260290021062     0.252754207948    12.000000000000
         C           -0.166706835837     0.774434340295    -0.118690631644    12.000000000000
         C            0.834461224427     1.682534989976    -0.472683591140    12.000000000000
         C            2.098089427194     1.246765345088    -0.826399012685    12.000000000000
         C            2.387317819177    -0.122286842796    -0.828539735506    12.000000000000
         C            1.402727127938    -1.036804689416    -0.454054189359    12.000000000000
         C            0.126252348738    -0.596397220538    -0.118002000901    12.000000000000
         S            3.993644033374    -0.747293889840    -1.247996342235    31.972071174400
         C            4.968752551730    -0.033931886787     0.112835242903    12.000000000000
         O           -2.918490220567    -2.162778324165     0.910276757322    15.994914619570
         O           -1.821800159541     2.427935704689     0.274512785422    15.994914619570
         H            2.856211510400     1.968054592749    -1.113984576189     1.007825032230
         H            0.591353979279     2.739735855734    -0.470390330088     1.007825032230
         H           -0.606200199747    -2.514241012363     0.234176564317     1.007825032230
         H            1.637250461002    -2.097258248092    -0.431884251807     1.007825032230
         H            5.001163406906     1.057034119788     0.063292142215     1.007825032230
         H            4.567311829921    -0.349414220811     1.078957964226     1.007825032230
         H            5.980939604240    -0.425228472565    -0.002021480292     1.007825032230

  Nuclear repulsion = 1190.028034223858867

  ==> Basis Set <==

  Basis Set: 6-31+G*
    Blend: 6-31+G*
    Number of shells: 144
    Number of basis function: 322
    Number of Cartesian functions: 322
    Spherical Harmonics?: false
    Max angular momentum: 2

  ==> DFJKGrad: Density-Fitted SCF Gradients <==

    Gradient:                    1
    J tasked:                  Yes
    K tasked:                  Yes
    wK tasked:                 Yes
    Omega:               2.000E-01
    OpenMP threads:              8
    Integrals threads:           8
    Memory [MiB]:            11444
    Schwarz Cutoff:          0E+00
    Fitting Condition:       1E-10

   => Auxiliary Basis Set <=

  Basis Set: (6-31+G* AUX)
    Blend: HEAVY-AUG-CC-PVDZ-JKFIT
    Number of shells: 523
    Number of basis function: 1840
    Number of Cartesian functions: 1840
    Spherical Harmonics?: false
    Max angular momentum: 3

  ==> DFT Potential <==

   => Composite Functional: WB97X-D <= 

    wB97X-D Hyb-GGA Exchange-Correlation Functional

    J.-D. Chai and M. Head-Gordon, Phys. Chem. Chem. Phys. 10, 6615 (2008)

    Deriv               =              1
    GGA                 =           TRUE
    Meta                =          FALSE

    Exchange Hybrid     =           TRUE
    MP2 Hybrid          =          FALSE

   => Exchange-Correlation Functionals <=

    1.0000   wB97D range-separated functional

   => Exact (HF) Exchange <=

    0.7780            HF,LR [omega = 0.2000]
    0.2220               HF 

   => Molecular Quadrature <=

    Radial Scheme          =       TREUTLER
    Pruning Scheme         =           FLAT
    Nuclear Scheme         =       TREUTLER

    BS radius alpha        =              1
    Pruning alpha          =              1
    Radial Points          =             75
    Spherical Points       =            302
    Total Points           =         520859
    Total Blocks           =           3887
    Max Points             =            256
    Max Functions          =            287


  -Total Gradient:
     Atom            X                  Y                   Z
    ------   -----------------  -----------------  -----------------
       1        0.000744796395     0.003268640155    -0.000465933376
       2        0.000761331959     0.002410376008    -0.000416025489
       3        0.004979756683    -0.000543215514    -0.001224949300
       4       -0.001703065167     0.000270551692    -0.000656459329
       5       -0.001097411456     0.000374200563     0.001236392706
       6       -0.001320698794    -0.003274804665     0.000652626875
       7        0.000111952635     0.000681531584    -0.000017675401
       8       -0.000567855487    -0.001229014389     0.000178779011
       9       -0.001370402853    -0.003439954332     0.002024065250
      10        0.004173098794     0.002916470582    -0.006975133324
      11       -0.002333572105     0.001012564862     0.003793981138
      12        0.004519669371    -0.001281557006    -0.001583723038
      13       -0.003087684767     0.000124520081     0.002127584599
      14        0.000764647309    -0.000598241342    -0.000309268854
      15       -0.001083413490    -0.001926940140     0.000452029362
      16        0.000210875628     0.000848496512    -0.000029635155
      17       -0.000462497638     0.000564815071     0.000559196159
      18        0.000270293318    -0.000534034985    -0.000071089106
      19       -0.000899903001    -0.000422279031     0.000438075659
      20       -0.000152780237     0.000070971095    -0.000095730043
      21        0.000029111047     0.000222648428     0.000518166453
      22       -0.000407399136     0.000161428611     0.000196712222
      23       -0.001172958982    -0.000031649836    -0.000354886085


*** tstop() called on cpu-spot-dy-c5n2xlarge-1 at Mon Jun 21 22:47:02 2021
Module time:
	user time   =     148.04 seconds =       2.47 minutes
	system time =       3.60 seconds =       0.06 minutes
[...]
	   Coordinate                Previous        Force       Change         New 
	   ----------                --------       ------       ------       ------
	    1 R(1,2)          =      1.369618     0.000220     0.000079     1.369698
	    2 R(1,12)         =      1.397408     0.000115     0.000089     1.397497
	    3 R(1,19)         =      1.013010     0.000023     0.000017     1.013027
	    4 R(2,3)          =      1.547442     0.000501     0.000205     1.547646
	    5 R(2,15)         =      1.208798    -0.000258    -0.000050     1.208749
	    6 R(3,4)          =      1.351132    -0.003863    -0.000924     1.350208
	    7 R(3,5)          =      1.358830     0.002345     0.000469     1.359300
	    8 R(3,6)          =      1.552646     0.000709     0.000321     1.552967
	    9 R(6,7)          =      1.470450     0.000230     0.000073     1.470524
	   10 R(6,16)         =      1.209622    -0.000441    -0.000050     1.209572
	   11 R(7,8)          =      1.401187    -0.000973    -0.000221     1.400966
	   12 R(7,12)         =      1.401481     0.001335     0.000464     1.401945
	   13 R(8,9)          =      1.382150     0.001187     0.000354     1.382504
	   14 R(8,18)         =      1.085522     0.000164     0.000069     1.085592
	   15 R(9,10)         =      1.403826    -0.000955    -0.000199     1.403627
	   16 R(9,17)         =      1.085065     0.000079     0.000048     1.085113
	   17 R(10,11)        =      1.391451     0.000898     0.000246     1.391697
	   18 R(10,13)        =      1.784015     0.000229     0.000118     1.784133
	   19 R(11,12)        =      1.397652    -0.000918    -0.000217     1.397435
	   20 R(11,20)        =      1.086432     0.000114     0.000035     1.086468
	   21 R(13,14)        =      1.820404     0.000042     0.000040     1.820445
	   22 R(14,21)        =      1.092241    -0.000004    -0.000000     1.092241
	   23 R(14,22)        =      1.092217    -0.000059    -0.000009     1.092207
	   24 R(14,23)        =      1.092968     0.000096     0.000073     1.093041
	   25 B(1,2,3)        =    115.861393     0.000002     0.010001   115.871395
	   26 B(1,2,15)       =    122.962065     0.000000    -0.000764   122.961301
	   27 B(1,12,7)       =    121.131687     0.000001     0.013000   121.144687
	   28 B(1,12,11)      =    119.047377     0.000000    -0.007205   119.040172
	   29 B(2,1,12)       =    127.061352    -0.000001    -0.015118   127.046235
	   30 B(2,1,19)       =    114.510230     0.000002     0.020707   114.530936
	   31 B(2,3,4)        =    107.715190     0.000004     0.014026   107.729217
	   32 B(2,3,5)        =    106.905112    -0.000006    -0.027022   106.878090
	   33 B(2,3,6)        =    117.839817    -0.000000    -0.002355   117.837463
	   34 B(3,2,15)       =    121.170364    -0.000002    -0.009966   121.160398
	   35 B(3,6,7)        =    117.109047    -0.000000    -0.008202   117.100845
	   36 B(3,6,16)       =    118.365596     0.000001     0.007303   118.372899
	   37 B(4,3,5)        =    108.356886     0.000002     0.014330   108.371216
	   38 B(4,3,6)        =    108.522509    -0.000002    -0.018741   108.503768
	   39 B(5,3,6)        =    107.185077     0.000002     0.021505   107.206581
	   40 B(6,7,8)        =    119.903764     0.000001     0.003945   119.907710
	   41 B(6,7,12)       =    120.723754    -0.000001    -0.007176   120.716578
	   42 B(7,6,16)       =    124.518190    -0.000001    -0.000721   124.517469
	   43 B(7,8,9)        =    120.932285    -0.000000    -0.002826   120.929459
	   44 B(7,8,18)       =    117.951302     0.000004     0.028071   117.979374
	   45 B(7,12,11)      =    119.817698    -0.000001    -0.006808   119.810890
	   46 B(8,7,12)       =    119.372462     0.000000     0.002960   119.375421
	   47 B(8,9,10)       =    119.533169    -0.000001    -0.001453   119.531716
	   48 B(8,9,17)       =    120.388720    -0.000002    -0.000973   120.387748
	   49 B(9,8,18)       =    121.114359    -0.000004    -0.024922   121.089437
	   50 B(9,10,11)      =    120.138118     0.000001     0.005131   120.143249
	   51 B(9,10,13)      =    121.053213    -0.000001    -0.008214   121.044999
	   52 B(10,9,17)      =    120.066558     0.000002     0.002332   120.068890
	   53 B(10,11,12)     =    120.189134     0.000000     0.001993   120.191128
	   54 B(10,11,20)     =    119.621593    -0.000004    -0.023097   119.598496
	   55 B(10,13,14)     =     99.949378    -0.000001    -0.011545    99.937834
	   56 B(11,10,13)     =    118.782421    -0.000000     0.003080   118.785501
	   57 B(12,1,19)      =    118.422471    -0.000001    -0.007617   118.414853
	   58 B(12,11,20)     =    120.189257     0.000004     0.021117   120.210374
	   59 B(13,14,21)     =    111.689509    -0.000002    -0.014801   111.674708
	   60 B(13,14,22)     =    110.755989     0.000000     0.000674   110.756663
	   61 B(13,14,23)     =    106.352481    -0.000003    -0.021884   106.330597
	   62 B(21,14,22)     =    110.084098     0.000003     0.019476   110.103573
	   63 B(21,14,23)     =    108.743624     0.000002     0.014593   108.758217
	   64 B(22,14,23)     =    109.097950     0.000001     0.001119   109.099069
	   65 D(1,2,3,4)      =    128.488253     0.000001     0.089171   128.577424
	   66 D(1,2,3,5)      =   -115.240177     0.000001     0.099094  -115.141082
	   67 D(1,2,3,6)      =      5.405862     0.000001     0.104299     5.510161
	   68 D(1,12,7,6)     =      0.084104    -0.000001    -0.158218    -0.074115
	   69 D(1,12,7,8)     =   -179.864355    -0.000000    -0.013497  -179.877853
	   70 D(1,12,11,10)   =    179.093926    -0.000000     0.032962   179.126888
	   71 D(1,12,11,20)   =     -0.952099     0.000000     0.060552    -0.891548
	   72 D(2,1,12,7)     =     -0.825625     0.000001     0.151947    -0.673678
	   73 D(2,1,12,11)    =    178.518386     0.000001     0.056360   178.574746
	   74 D(2,3,6,7)      =     -6.083944    -0.000001    -0.118898    -6.202842
	   75 D(2,3,6,16)     =    174.845550     0.000001    -0.019196   174.826354
	   76 D(3,2,1,12)     =     -2.064521    -0.000000    -0.121946    -2.186467
	   77 D(3,2,1,19)     =    178.844024     0.000000     0.021675   178.865698
	   78 D(3,6,7,8)      =   -176.651641     0.000000     0.000371  -176.651270
	   79 D(3,6,7,12)     =      3.400173     0.000001     0.145860     3.546032
	   80 D(4,3,2,15)     =    -52.390029     0.000001     0.038827   -52.351202
	   81 D(4,3,6,7)      =   -128.757647    -0.000002    -0.120311  -128.877958
	   82 D(4,3,6,16)     =     52.171847    -0.000000    -0.020609    52.151238
	   83 D(5,3,2,15)     =     63.881542     0.000001     0.048750    63.930291
	   84 D(5,3,6,7)      =    114.416802    -0.000002    -0.138899   114.277903
	   85 D(5,3,6,16)     =    -64.653704    -0.000001    -0.039197   -64.692901
	   86 D(6,3,2,15)     =   -175.472420     0.000000     0.053954  -175.418466
	   87 D(6,7,8,9)      =   -179.870824     0.000001     0.075909  -179.794915
	   88 D(6,7,8,18)     =     -0.386522     0.000001     0.118133    -0.268389
	   89 D(6,7,12,11)    =   -179.254912    -0.000001    -0.061902  -179.316814
	   90 D(7,8,9,10)     =     -0.201361    -0.000000     0.029764    -0.171597
	   91 D(7,8,9,17)     =    178.563129    -0.000000     0.024778   178.587907
	   92 D(7,12,1,19)    =    178.234396     0.000000     0.003614   178.238010
	   93 D(7,12,11,10)   =     -1.553269    -0.000000    -0.061191    -1.614461
	   94 D(7,12,11,20)   =    178.400706     0.000000    -0.033602   178.367104
	   95 D(8,7,6,16)     =      2.355699    -0.000002    -0.106023     2.249677
	   96 D(8,7,12,11)    =      0.796629    -0.000000     0.082819     0.879448
	   97 D(8,9,10,11)    =     -0.554499    -0.000000    -0.007106    -0.561604
	   98 D(8,9,10,13)    =   -178.668219    -0.000000    -0.007063  -178.675283
	   99 D(9,8,7,12)     =      0.078064     0.000000    -0.067628     0.010436
	  100 D(9,10,11,12)   =      1.434147     0.000000     0.023300     1.457448
	  101 D(9,10,11,20)   =   -178.520089     0.000000    -0.004140  -178.524230
	  102 *D(9,10,13,14)  =     64.087530     0.000000    -0.000000    64.087530
	  103 D(10,9,8,18)    =   -179.669273    -0.000000    -0.014057  -179.683330
	  104 *D(10,13,14,21) =    -65.587407     0.000000    -0.000000   -65.587407
	  105 D(10,13,14,22)  =     57.502236     0.000000     0.015081    57.517317
	  106 D(10,13,14,23)  =    175.916519     0.000000     0.003883   175.920402
	  107 D(11,10,9,17)   =   -179.323030    -0.000000    -0.002095  -179.325125
	  108 *D(11,10,13,14) =   -114.051244    -0.000000    -0.000000  -114.051244
	  109 D(11,12,1,19)   =     -2.421593    -0.000000    -0.091973    -2.513566
	  110 D(12,1,2,15)    =    178.831140    -0.000000    -0.070514   178.760626
	  111 D(12,7,6,16)    =   -177.592487    -0.000001     0.039466  -177.553021
	  112 D(12,7,8,18)    =    179.562366     0.000000    -0.025404   179.536962
	  113 D(12,11,10,13)  =    179.590422     0.000000     0.023045   179.613467
	  114 D(13,10,9,17)   =      2.563249    -0.000000    -0.002052     2.561197
	  115 D(13,10,11,20)  =     -0.363814     0.000000    -0.004396    -0.368210
	  116 D(15,2,1,19)    =     -0.260316     0.000000     0.073107    -0.187208
	  117 D(17,9,8,18)    =     -0.904783    -0.000000    -0.019043    -0.923826
	  118 R(1,X)          =     -0.856828    -0.000250    -0.000028    -0.856855
	  119 R(1,Y)          =     -1.548236    -0.000422    -0.000196    -1.548432
	  120 R(1,Z)          =      0.184466     0.000177     0.000772     0.185238
	  121 R(2,X)          =     -2.161217    -0.000602    -0.000397    -2.161614
	  122 R(2,Y)          =     -1.306487    -0.000111    -0.000010    -1.306497
	  123 R(2,Z)          =      0.525026    -0.000507    -0.000457     0.524569
	  124 R(3,X)          =     -2.573331    -0.001091    -0.000421    -2.573752
	  125 R(3,Y)          =      0.182985     0.000294     0.000180     0.183165
	  126 R(3,Z)          =      0.603838    -0.000882    -0.000165     0.603672
	  127 R(4,X)          =     -3.685064     0.001951    -0.000015    -3.685079
	  128 R(4,Y)          =      0.342262     0.000409     0.000434     0.342695
	  129 R(4,Z)          =     -0.147320     0.001589     0.000950    -0.146369
	  130 R(5,X)          =     -2.892701    -0.000884     0.000416    -2.892285
	  131 R(5,Y)          =      0.436544    -0.000377    -0.000364     0.436181
	  132 R(5,Z)          =      1.900036     0.001758     0.000639     1.900675
	  133 R(6,X)          =     -1.529388    -0.000791    -0.000493    -1.529881
	  134 R(6,Y)          =      1.247995     0.000808     0.000369     1.248363
	  135 R(6,Z)          =      0.171809    -0.001437    -0.001028     0.170781
	  136 R(7,X)          =     -0.177201    -0.000187     0.000009    -0.177192
	  137 R(7,Y)          =      0.768602     0.000950     0.000444     0.769047
	  138 R(7,Z)          =     -0.150677    -0.000163     0.000635    -0.150042
	  139 R(8,X)          =      0.829477    -0.000704    -0.000233     0.829244
	  140 R(8,Y)          =      1.686264     0.000165     0.000172     1.686435
	  141 R(8,Z)          =     -0.479041     0.000212     0.000075    -0.478967
	  142 R(9,X)          =      2.107021     0.000332     0.000051     2.107072
	  143 R(9,Y)          =      1.258951    -0.000438    -0.000109     1.258841
	  144 R(9,Z)          =     -0.788270     0.000019     0.000052    -0.788218
	  145 R(10,X)         =      2.401250    -0.000259    -0.000192     2.401058
	  146 R(10,Y)         =     -0.113560     0.000414     0.000043    -0.113517
	  147 R(10,Z)         =     -0.769007     0.000104     0.000135    -0.768872
	  148 R(11,X)         =      1.415224    -0.000940    -0.000390     1.414834
	  149 R(11,Y)         =     -1.034739    -0.000091    -0.000039    -1.034778
	  150 R(11,Z)         =     -0.429422     0.000437     0.000346    -0.429076
	  151 R(12,X)         =      0.119606    -0.000131    -0.000269     0.119337
	  152 R(12,Y)         =     -0.601000    -0.000401    -0.000098    -0.601098
	  153 R(12,Z)         =     -0.135017     0.000096    -0.000064    -0.135081
	  154 R(13,X)         =      4.044997    -0.000154    -0.000125     4.044872
	  155 R(13,Y)         =     -0.707460     0.000105    -0.000028    -0.707488
	  156 R(13,Z)         =     -1.126901    -0.000042    -0.000025    -1.126926
	  157 R(14,X)         =      4.955632    -0.000364    -0.000269     4.955363
	  158 R(14,Y)         =      0.027951     0.000280     0.000197     0.028148
	  159 R(14,Z)         =      0.267297     0.000057     0.000002     0.267299
	  160 R(15,X)         =     -2.951555    -0.000698    -0.000585    -2.952140
	  161 R(15,Y)         =     -2.188061     0.000298     0.000135    -2.187926
	  162 R(15,Z)         =      0.768720    -0.000619    -0.000790     0.767930
	  163 R(16,X)         =     -1.871436    -0.000494    -0.000438    -1.871874
	  164 R(16,Y)         =      2.407785     0.000445     0.000328     2.408113
	  165 R(16,Z)         =      0.138999    -0.001126    -0.001195     0.137803
	  166 R(17,X)         =      2.873811     0.000283     0.000146     2.873958
	  167 R(17,Y)         =      1.975488    -0.000283    -0.000178     1.975310
	  168 R(17,Z)         =     -1.063901    -0.000026    -0.000051    -1.063953
	  169 R(18,X)         =      0.572405     0.000324     0.000381     0.572785
	  170 R(18,Y)         =      2.740838     0.000581     0.000393     2.741230
	  171 R(18,Z)         =     -0.491166    -0.000085     0.000108    -0.491059
	  172 R(19,X)         =     -0.604525     0.000016     0.000018    -0.604507
	  173 R(19,Y)         =     -2.528935    -0.000379    -0.000185    -2.529120
	  174 R(19,Z)         =      0.156859     0.000233     0.000179     0.157038
	  175 R(20,X)         =      1.658406    -0.000151    -0.000048     1.658358
	  176 R(20,Y)         =     -2.093003    -0.000032    -0.000001    -2.093004
	  177 R(20,Z)         =     -0.393707     0.000286     0.000204    -0.393503
	  178 R(21,X)         =      4.965165    -0.000662    -0.000527     4.964638
	  179 R(21,Y)         =      1.118787     0.000251     0.000183     1.118970
	  180 R(21,Z)         =      0.212745    -0.000492    -0.000327     0.212418
	  181 R(22,X)         =      4.532008    -0.000252    -0.000119     4.531889
	  182 R(22,Y)         =     -0.296233     0.000114     0.000033    -0.296200
	  183 R(22,Z)         =      1.220389    -0.000017     0.000003     1.220392
	  184 R(23,X)         =      5.983145    -0.000352    -0.000244     5.982901
	  185 R(23,Y)         =     -0.336543     0.000111     0.000109    -0.336433
	  186 R(23,Z)         =      0.190219    -0.000333    -0.000288     0.189931
	 ---------------------------------------------------------------------------
	Successfully symmetrized geometry.

  ==> Convergence Check <==

  Measures of convergence in internal coordinates in au.
  Criteria marked as inactive (o), active & met (*), and active & unmet ( ).
  ---------------------------------------------------------------------------------------------
   Step     Total Energy     Delta E     MAX Force     RMS Force      MAX Disp      RMS Disp   
  ---------------------------------------------------------------------------------------------
    Convergence Criteria             o    2.50e-03 *    1.70e-03 *    1.00e-02 *    6.70e-03 *
  ---------------------------------------------------------------------------------------------
      2   -1188.11983779   -1.17e-05 o    4.69e-04 *    6.98e-05 *    2.76e-03 *    8.03e-04 *  ~
  ---------------------------------------------------------------------------------------------


  **** Optimization is complete! (in 2 steps) ****

  ==> Optimization Summary <==

  Measures of convergence in internal coordinates in au.
  --------------------------------------------------------------------------------------------------------------- ~
   Step         Total Energy             Delta E       MAX Force       RMS Force        MAX Disp        RMS Disp  ~
  --------------------------------------------------------------------------------------------------------------- ~
      1   -1188.119826136890  -1188.119826136890      0.00079494      0.00012742      0.01097985      0.00220349  ~
      2   -1188.119837790993     -0.000011654103      0.00046888      0.00006978      0.00276143      0.00080338  ~
  --------------------------------------------------------------------------------------------------------------- ~

	Writing optimization data to binary file.
	Final energy is  -1188.1198377909932
	Final (previous) structure:
	Cartesian Geometry (in Angstrom)
	    N    -0.8568277650  -1.5482361373   0.1844662503
	    C    -2.1612169435  -1.3064871841   0.5250263003
	    C    -2.5733306236   0.1829846643   0.6038375441
	    F    -3.6850641397   0.3422617521  -0.1473196081
	    F    -2.8927009103   0.4365444604   1.9000357749
	    C    -1.5293882138   1.2479948493   0.1718091495
	    C    -0.1772009863   0.7686024079  -0.1506765896
	    C     0.8294768201   1.6862638856  -0.4790413669
	    C     2.1070212015   1.2589507099  -0.7882696887
	    C     2.4012501760  -0.1135595647  -0.7690066329
	    C     1.4152244333  -1.0347390206  -0.4294221165
	    C     0.1196061865  -0.6009995220  -0.1350170279
	    S     4.0449967425  -0.7074598284  -1.1269005858
	    C     4.9556323505   0.0279507466   0.2672968604
	    O    -2.9515547068  -2.1880613098   0.7687203153
	    O    -1.8714359644   2.4077850312   0.1389986674
	    H     2.8738112622   1.9754883086  -1.0639014902
	    H     0.5724045647   2.7408376737  -0.4911660787
	    H    -0.6045248360  -2.5289348554   0.1568586189
	    H     1.6584060662  -2.0930026815  -0.3937069427
	    H     4.9651645369   1.1187869612   0.2127449830
	    H     4.5320080598  -0.2962331716   1.2203887723
	    H     5.9831453215  -0.3365429238   0.1902191544
	Saving final (previous) structure.
			--------------------------
			 OPTKING Finished Execution 
			--------------------------

    Final optimized geometry and variables:
    Molecular point group: c1
    Full point group: C1

    Geometry (in Angstrom), charge = 0, multiplicity = 1:

    N           -0.856827768327    -1.548236143409     0.184466251050
    C           -2.161216951960    -1.306487189283     0.525026302327
    C           -2.573330633694     0.182984665023     0.603837546454
    F           -3.685064154203     0.342261753483    -0.147319608723
    F           -2.892700921623     0.436544462109     1.900035782363
    C           -1.529388219789     1.247994854230     0.171809150127
    C           -0.177200987032     0.768602410890    -0.150676590173
    C            0.829476823395     1.686263892278    -0.479041368774
    C            2.107021209823     1.258950714826    -0.788269691828
    C            2.401250185416    -0.113559565172    -0.769006635883
    C            1.415224438857    -1.034739024648    -0.429422118155
    C            0.119606186966    -0.600999524386    -0.135017028439
    S            4.044996758425    -0.707459831201    -1.126900590201
    C            4.955632369955     0.027950746698     0.267296861466
    O           -2.951554718447    -2.188061318386     0.768720318310
    O           -1.871435971730     2.407785040619     0.138998667959
    H            2.873811273520     1.975488316349    -1.063901494416
    H            0.572404566975     2.740837684448    -0.491166080596
    H           -0.604524838362    -2.528934865385     0.156858619505
    H            1.658406072740    -2.093002689727    -0.393706944218
    H            4.965164556370     1.118786965599     0.212744983834
    H            4.532008077663    -0.296233172785     1.220388777062
    H            5.983145345036    -0.336542925094     0.190219155154

	Removing binary optimization data file.
	Cleaning optimization helper files.

    Psi4 stopped on: Monday, 21 June 2021 11:02PM
    Psi4 wall time for execution: 0:18:34.69

*** Psi4 exiting successfully. Buy a developer a beer!
