
    -----------------------------------------------------------------------
          Psi4: An Open-Source Ab Initio Electronic Structure Package
                               Psi4 1.3.2 release

                         Git: Rev {HEAD} ecbda83 


    R. M. Parrish, L. A. Burns, D. G. A. Smith, A. C. Simmonett,
    A. E. DePrince III, E. G. Hohenstein, U. Bozkaya, A. Yu. Sokolov,
    R. Di Remigio, R. M. Richard, J. F. Gonthier, A. M. James,
    H. R. McAlexander, A. Kumar, M. Saitow, X. Wang, B. P. Pritchard,
    P. Verma, H. F. Schaefer III, K. Patkowski, R. A. King, E. F. Valeev,
    F. A. Evangelista, J. M. Turney, T. D. Crawford, and C. D. Sherrill,
    J. Chem. Theory Comput. 13(7) pp 3185--3197 (2017).
    (doi: 10.1021/acs.jctc.7b00174)


                         Additional Contributions by
    P. Kraus, H. Kruse, M. H. Lechner, M. C. Schieber, R. A. Shaw,
    A. Alenaizan, R. Galvelis, Z. L. Glick, S. Lehtola, and J. P. Misiewicz

    -----------------------------------------------------------------------


    Psi4 started on: Tuesday, 22 June 2021 07:35AM

    Process ID: 31966
    Host:       cpu-spot-dy-c5n2xlarge-1
    PSIDATADIR: /fsx/users/francis/anaconda3/envs/poltype-dev/share/psi4
    Memory:     500.0 MiB
    Threads:    1
    
  ==> Input File <==

--------------------------------------------------------------------------
molecule { 
0 1
 N   -1.138822   -1.421161   -0.166359
 C   -2.432846   -0.995338   -0.014454
 C   -2.565266    0.463171    0.477628
 F   -3.755006    0.955180    0.122483
 F   -2.515345    0.396296    1.853582
 C   -1.420826    1.422390    0.065810
 C   -0.105693    0.785435   -0.065567
 C    1.056790    1.558304   -0.123852
 C    2.305751    0.976798   -0.260859
 C    2.412514   -0.418945   -0.358295
 C    1.253791   -1.204723   -0.310777
 C    0.004092   -0.612969   -0.170873
 S    3.917673   -1.328113   -0.498981
 C    5.250882   -0.104856   -0.349923
 O   -3.391824   -1.712317   -0.178360
 O   -1.639840    2.606002   -0.060307
 H    3.178261    1.615888   -0.318328
 H    0.957039    2.637372   -0.055794
 H   -1.039575   -2.402141   -0.398818
 H    1.332567   -2.286988   -0.379177
 H    4.924113    0.783636    0.191833
 H    6.060493   -0.582135    0.205115
 H    5.610912    0.196295   -1.336137
}
memory 16GB
set_num_threads(8)
psi4_io.set_default_path("/scratch/Psi4-ligand")
set freeze_core True
E, wfn = energy('wb97x-d/6-311++g**',return_wfn=True)
oeprop(wfn,"WIBERG_LOWDIN_INDICES")
clean()
--------------------------------------------------------------------------

  Memory set to  14.901 GiB by Python driver.
  Threads set to 8 by Python driver.

*** tstart() called on cpu-spot-dy-c5n2xlarge-1
*** at Tue Jun 22 07:35:46 2021

   => Loading Basis Set <=

    Name: 6-311++G**
    Role: ORBITAL
    Keyword: BASIS
    atoms 1             entry N          line   140 file /fsx/users/francis/anaconda3/envs/poltype-dev/share/psi4/basis/6-311ppgss.gbs 
    atoms 2-3, 6-12, 14 entry C          line   119 file /fsx/users/francis/anaconda3/envs/poltype-dev/share/psi4/basis/6-311ppgss.gbs 
    atoms 4-5           entry F          line   182 file /fsx/users/francis/anaconda3/envs/poltype-dev/share/psi4/basis/6-311ppgss.gbs 
    atoms 13            entry S          line   419 file /fsx/users/francis/anaconda3/envs/poltype-dev/share/psi4/basis/6-311ppgss.gbs 
    atoms 15-16         entry O          line   161 file /fsx/users/francis/anaconda3/envs/poltype-dev/share/psi4/basis/6-311ppgss.gbs 
    atoms 17-23         entry H          line    42 file /fsx/users/francis/anaconda3/envs/poltype-dev/share/psi4/basis/6-311ppgss.gbs 


         ---------------------------------------------------------
                                   SCF
               by Justin Turney, Rob Parrish, Andy Simmonett
                          and Daniel G. A. Smith
                              RKS Reference
                        8 Threads,  15258 MiB Core
         ---------------------------------------------------------

  ==> Geometry <==

    Molecular point group: c1
    Full point group: C1

    Geometry (in Angstrom), charge = 0, multiplicity = 1:

       Center              X                  Y                   Z               Mass       
    ------------   -----------------  -----------------  -----------------  -----------------
         N           -1.138822036610    -1.421160951622    -0.166359054673    14.003074004430
         C           -2.432846036610    -0.995337951622    -0.014454054673    12.000000000000
         C           -2.565266036610     0.463171048378     0.477627945327    12.000000000000
         F           -3.755006036610     0.955180048378     0.122482945327    18.998403162730
         F           -2.515345036610     0.396296048378     1.853581945327    18.998403162730
         C           -1.420826036610     1.422390048378     0.065809945327    12.000000000000
         C           -0.105693036610     0.785435048378    -0.065567054673    12.000000000000
         C            1.056789963390     1.558304048378    -0.123852054673    12.000000000000
         C            2.305750963390     0.976798048378    -0.260859054673    12.000000000000
         C            2.412513963390    -0.418944951622    -0.358295054673    12.000000000000
         C            1.253790963390    -1.204722951622    -0.310777054673    12.000000000000
         C            0.004091963390    -0.612968951622    -0.170873054673    12.000000000000
         S            3.917672963390    -1.328112951622    -0.498981054673    31.972071174400
         C            5.250881963390    -0.104855951622    -0.349923054673    12.000000000000
         O           -3.391824036610    -1.712316951622    -0.178360054673    15.994914619570
         O           -1.639840036610     2.606002048378    -0.060307054673    15.994914619570
         H            3.178260963390     1.615888048378    -0.318328054673     1.007825032230
         H            0.957038963390     2.637372048378    -0.055794054673     1.007825032230
         H           -1.039575036610    -2.402140951622    -0.398818054673     1.007825032230
         H            1.332566963390    -2.286987951622    -0.379177054673     1.007825032230
         H            4.924112963390     0.783636048378     0.191832945327     1.007825032230
         H            6.060492963390    -0.582134951622     0.205114945327     1.007825032230
         H            5.610911963390     0.196295048378    -1.336137054673     1.007825032230

  Running in c1 symmetry.

  Rotational constants: A =      0.03946  B =      0.00838  C =      0.00726 [cm^-1]
  Rotational constants: A =   1183.07538  B =    251.25548  C =    217.60402 [MHz]
  Nuclear repulsion = 1190.872769331043173

  Charge       = 0
  Multiplicity = 1
  Electrons    = 124
  Nalpha       = 62
  Nbeta        = 62

  ==> Algorithm <==

  SCF Algorithm Type is DF.
  DIIS enabled.
  MOM disabled.
  Fractional occupation disabled.
  Guess Type is SAD.
  Energy threshold   = 1.00e-06
  Density threshold  = 1.00e-06
  Integral threshold = 0.00e+00

  ==> Primary Basis <==

  Basis Set: 6-311++G**
    Blend: 6-311++G**
    Number of shells: 199
    Number of basis function: 409
    Number of Cartesian functions: 425
    Spherical Harmonics?: true
    Max angular momentum: 2

  ==> DFT Potential <==

   => Composite Functional: WB97X-D <= 

    wB97X-D Hyb-GGA Exchange-Correlation Functional

    J.-D. Chai and M. Head-Gordon, Phys. Chem. Chem. Phys. 10, 6615 (2008)

    Deriv               =              1
    GGA                 =           TRUE
    Meta                =          FALSE

    Exchange Hybrid     =           TRUE
    MP2 Hybrid          =          FALSE

   => Exchange-Correlation Functionals <=

    1.0000   wB97D range-separated functional

   => Exact (HF) Exchange <=

    0.7780            HF,LR [omega = 0.2000]
    0.2220               HF 

   => Molecular Quadrature <=

    Radial Scheme          =       TREUTLER
    Pruning Scheme         =           FLAT
    Nuclear Scheme         =       TREUTLER

    BS radius alpha        =              1
    Pruning alpha          =              1
    Radial Points          =             75
    Spherical Points       =            302
    Total Points           =         520868
    Total Blocks           =           3922
    Max Points             =            256
    Max Functions          =            316

   => WB97X-D: Empirical Dispersion <=

    Chai and Head-Gordon Dispersion Correction
    Chai, J.-D.; Head-Gordon, M. (2010), J. Chem. Phys., 132: 6615-6620

        s6 =       1.000000

   => Loading Basis Set <=

    Name: (6-311++G** AUX)
    Role: JKFIT
    Keyword: DF_BASIS_SCF
    atoms 1             entry N          line   224 file /fsx/users/francis/anaconda3/envs/poltype-dev/share/psi4/basis/aug-cc-pvtz-jkfit.gbs 
    atoms 2-3, 6-12, 14 entry C          line   162 file /fsx/users/francis/anaconda3/envs/poltype-dev/share/psi4/basis/aug-cc-pvtz-jkfit.gbs 
    atoms 4-5           entry F          line   348 file /fsx/users/francis/anaconda3/envs/poltype-dev/share/psi4/basis/aug-cc-pvtz-jkfit.gbs 
    atoms 13            entry S          line   730 file /fsx/users/francis/anaconda3/envs/poltype-dev/share/psi4/basis/aug-cc-pvtz-jkfit.gbs 
    atoms 15-16         entry O          line   286 file /fsx/users/francis/anaconda3/envs/poltype-dev/share/psi4/basis/aug-cc-pvtz-jkfit.gbs 
    atoms 17-23         entry H          line    70 file /fsx/users/francis/anaconda3/envs/poltype-dev/share/psi4/basis/aug-cc-pvtz-jkfit.gbs 

  ==> Pre-Iterations <==

   -------------------------------------------------------
    Irrep   Nso     Nmo     Nalpha   Nbeta   Ndocc  Nsocc
   -------------------------------------------------------
     A        409     409       0       0       0       0
   -------------------------------------------------------
    Total     409     409      62      62      62       0
   -------------------------------------------------------

  ==> Integral Setup <==

  ==> DiskDFJK: Density-Fitted J/K Matrices <==

    J tasked:                  Yes
    K tasked:                  Yes
    wK tasked:                 Yes
    Omega:               2.000E-01
    OpenMP threads:              8
    Integrals threads:           8
    Memory [MiB]:             7964
    Algorithm:                Core
    Integral Cache:           NONE
    Schwarz Cutoff:          1E-12
    Fitting Condition:       1E-10

   => Auxiliary Basis Set <=

  Basis Set: (6-311++G** AUX)
    Blend: AUG-CC-PVTZ-JKFIT
    Number of shells: 590
    Number of basis function: 2028
    Number of Cartesian functions: 2530
    Spherical Harmonics?: true
    Max angular momentum: 4

  Cached 100.0% of DFT collocation blocks in 3.398 [GiB].

  Minimum eigenvalue in the overlap matrix is 2.4650933315E-07.
  Using Symmetric Orthogonalization.

  SCF Guess: Superposition of Atomic Densities via on-the-fly atomic UHF.

  ==> Iterations <==

                           Total Energy        Delta E     RMS |[F,P]|

   @DF-RKS iter SAD: -1187.91221471057634   -1.18791e+03   0.00000e+00 
   @DF-RKS iter   1: -1187.71130907542874    2.00906e-01   2.90484e-03 DIIS
   @DF-RKS iter   2: -1187.76279392022889   -5.14848e-02   2.96190e-03 DIIS
   @DF-RKS iter   3: -1188.30411651240615   -5.41323e-01   6.49769e-04 DIIS
   @DF-RKS iter   4: -1188.32756403352369   -2.34475e-02   2.39831e-04 DIIS
   @DF-RKS iter   5: -1188.33162113538287   -4.05710e-03   6.31673e-05 DIIS
   @DF-RKS iter   6: -1188.33205782597338   -4.36691e-04   1.94696e-05 DIIS
   @DF-RKS iter   7: -1188.33211506452471   -5.72386e-05   8.21279e-06 DIIS
   @DF-RKS iter   8: -1188.33213186551006   -1.68010e-05   3.31804e-06 DIIS
   @DF-RKS iter   9: -1188.33213507636560   -3.21086e-06   1.50329e-06 DIIS
   @DF-RKS iter  10: -1188.33213544074306   -3.64377e-07   5.62876e-07 DIIS
  Energy and wave function converged.


  ==> Post-Iterations <==

    Orbital Energies [Eh]
    ---------------------

    Doubly Occupied:                                                      

       1A    -89.052799     2A    -24.841011     3A    -24.840211  
       4A    -19.271558     5A    -19.262325     6A    -14.515211  
       7A    -10.484576     8A    -10.436888     9A    -10.411939  
      10A    -10.389655    11A    -10.372331    12A    -10.340594  
      13A    -10.334507    14A    -10.330450    15A    -10.329774  
      16A    -10.324055    17A     -8.093411    18A     -6.042918  
      19A     -6.038410    20A     -6.032574    21A     -1.390311  
      22A     -1.328795    23A     -1.193100    24A     -1.181569  
      25A     -1.097764    26A     -1.005680    27A     -0.943729  
      28A     -0.907225    29A     -0.888499    30A     -0.869002  
      31A     -0.799589    32A     -0.765505    33A     -0.753816  
      34A     -0.745255    35A     -0.697605    36A     -0.681838  
      37A     -0.670521    38A     -0.645672    39A     -0.630984  
      40A     -0.593641    41A     -0.588878    42A     -0.571126  
      43A     -0.564251    44A     -0.559645    45A     -0.557397  
      46A     -0.549676    47A     -0.546965    48A     -0.535505  
      49A     -0.520398    50A     -0.515144    51A     -0.510619  
      52A     -0.499843    53A     -0.491795    54A     -0.489217  
      55A     -0.475791    56A     -0.443787    57A     -0.432422  
      58A     -0.399260    59A     -0.395976    60A     -0.365211  
      61A     -0.341290    62A     -0.318149  

    Virtual:                                                              

      63A     -0.041809    64A      0.013082    65A      0.026002  
      66A      0.034446    67A      0.047075    68A      0.052074  
      69A      0.060010    70A      0.065544    71A      0.069738  
      72A      0.073721    73A      0.080688    74A      0.084097  
      75A      0.091722    76A      0.098155    77A      0.103213  
      78A      0.104505    79A      0.114627    80A      0.116707  
      81A      0.125626    82A      0.126891    83A      0.130989  
      84A      0.140824    85A      0.143947    86A      0.150546  
      87A      0.152171    88A      0.154401    89A      0.158490  
      90A      0.167329    91A      0.172077    92A      0.173767  
      93A      0.176138    94A      0.180934    95A      0.181677  
      96A      0.184854    97A      0.192027    98A      0.197692  
      99A      0.199280   100A      0.202328   101A      0.204618  
     102A      0.209115   103A      0.213738   104A      0.218358  
     105A      0.220722   106A      0.225302   107A      0.229671  
     108A      0.235301   109A      0.238162   110A      0.243220  
     111A      0.250932   112A      0.256037   113A      0.258618  
     114A      0.267533   115A      0.268495   116A      0.275384  
     117A      0.278839   118A      0.282195   119A      0.288959  
     120A      0.294479   121A      0.298005   122A      0.300799  
     123A      0.306702   124A      0.313381   125A      0.314480  
     126A      0.320242   127A      0.323000   128A      0.326284  
     129A      0.333408   130A      0.336311   131A      0.343959  
     132A      0.349231   133A      0.357357   134A      0.364721  
     135A      0.366781   136A      0.369724   137A      0.376596  
     138A      0.379327   139A      0.386803   140A      0.387865  
     141A      0.394685   142A      0.406515   143A      0.409800  
     144A      0.413875   145A      0.422171   146A      0.426199  
     147A      0.437052   148A      0.445154   149A      0.449439  
     150A      0.462541   151A      0.464483   152A      0.469076  
     153A      0.471506   154A      0.489687   155A      0.492394  
     156A      0.503433   157A      0.518311   158A      0.521438  
     159A      0.527397   160A      0.536313   161A      0.546702  
     162A      0.558519   163A      0.565832   164A      0.573779  
     165A      0.585967   166A      0.602597   167A      0.608783  
     168A      0.611611   169A      0.626277   170A      0.632470  
     171A      0.646907   172A      0.652148   173A      0.660500  
     174A      0.663585   175A      0.680358   176A      0.686751  
     177A      0.716353   178A      0.725358   179A      0.729003  
     180A      0.731868   181A      0.739681   182A      0.747075  
     183A      0.748430   184A      0.756166   185A      0.757186  
     186A      0.772111   187A      0.779329   188A      0.786753  
     189A      0.803204   190A      0.808009   191A      0.814273  
     192A      0.824443   193A      0.837175   194A      0.846308  
     195A      0.865565   196A      0.870234   197A      0.883272  
     198A      0.890713   199A      0.908496   200A      0.917215  
     201A      0.933841   202A      0.947440   203A      0.953862  
     204A      0.964158   205A      0.967353   206A      0.981065  
     207A      0.991710   208A      1.001922   209A      1.005416  
     210A      1.023839   211A      1.035786   212A      1.050178  
     213A      1.054830   214A      1.068633   215A      1.095854  
     216A      1.099699   217A      1.122932   218A      1.135938  
     219A      1.156421   220A      1.163776   221A      1.175066  
     222A      1.184464   223A      1.207625   224A      1.208160  
     225A      1.230199   226A      1.242561   227A      1.262336  
     228A      1.274941   229A      1.283343   230A      1.289385  
     231A      1.298820   232A      1.330309   233A      1.335329  
     234A      1.343086   235A      1.357990   236A      1.385406  
     237A      1.393805   238A      1.440274   239A      1.485586  
     240A      1.506810   241A      1.521481   242A      1.529047  
     243A      1.541448   244A      1.553202   245A      1.561133  
     246A      1.571175   247A      1.577236   248A      1.591053  
     249A      1.599628   250A      1.610969   251A      1.621046  
     252A      1.625213   253A      1.628364   254A      1.642438  
     255A      1.652347   256A      1.671585   257A      1.678947  
     258A      1.695000   259A      1.716870   260A      1.726460  
     261A      1.733981   262A      1.748658   263A      1.763167  
     264A      1.769203   265A      1.781900   266A      1.803096  
     267A      1.813223   268A      1.829687   269A      1.836888  
     270A      1.848787   271A      1.870416   272A      1.879849  
     273A      1.889614   274A      1.926451   275A      1.945347  
     276A      1.963259   277A      1.986421   278A      1.998421  
     279A      2.001585   280A      2.012778   281A      2.032485  
     282A      2.037474   283A      2.062308   284A      2.063986  
     285A      2.094521   286A      2.099356   287A      2.120741  
     288A      2.131048   289A      2.137287   290A      2.163397  
     291A      2.187292   292A      2.205224   293A      2.235254  
     294A      2.238647   295A      2.266146   296A      2.292176  
     297A      2.293772   298A      2.324759   299A      2.342477  
     300A      2.357852   301A      2.427192   302A      2.487837  
     303A      2.505710   304A      2.521005   305A      2.532330  
     306A      2.554066   307A      2.568893   308A      2.603248  
     309A      2.626113   310A      2.645202   311A      2.657348  
     312A      2.679242   313A      2.752196   314A      2.767574  
     315A      2.784454   316A      2.804712   317A      2.808350  
     318A      2.820640   319A      2.837502   320A      2.847816  
     321A      2.863907   322A      2.889510   323A      2.894354  
     324A      2.904219   325A      2.928688   326A      2.939429  
     327A      2.971168   328A      2.975670   329A      2.990519  
     330A      3.021542   331A      3.031244   332A      3.049217  
     333A      3.074675   334A      3.079740   335A      3.111433  
     336A      3.146015   337A      3.166150   338A      3.189010  
     339A      3.282531   340A      3.285343   341A      3.324992  
     342A      3.370044   343A      3.406463   344A      3.430024  
     345A      3.439313   346A      3.483412   347A      3.530118  
     348A      3.552330   349A      3.592276   350A      3.631359  
     351A      3.646801   352A      3.682708   353A      3.701044  
     354A      3.759910   355A      3.803826   356A      3.812927  
     357A      3.849811   358A      3.859700   359A      3.875138  
     360A      3.898927   361A      3.933406   362A      3.948808  
     363A      3.966964   364A      4.001567   365A      4.024410  
     366A      4.084513   367A      4.155608   368A      4.188262  
     369A      4.243558   370A      4.269418   371A      4.351077  
     372A      4.495224   373A      4.821269   374A      4.888474  
     375A      4.917760   376A      5.046701   377A      5.167047  
     378A      5.173782   379A      5.177501   380A      5.310623  
     381A      5.320546   382A      5.829800   383A      5.873218  
     384A      6.486129   385A      6.505044   386A      6.521176  
     387A      6.536101   388A      6.650799   389A      6.906006  
     390A      8.094532   391A     17.440787   392A     17.612539  
     393A     17.651764   394A     23.628556   395A     23.746828  
     396A     23.966476   397A     24.001337   398A     24.019620  
     399A     24.031943   400A     24.036619   401A     24.134949  
     402A     24.189722   403A     24.276456   404A     35.751974  
     405A     50.129913   406A     50.147058   407A     66.920217  
     408A     66.960487   409A    189.357578  

    Final Occupation by Irrep:
              A 
    DOCC [    62 ]

  @DF-RKS Final Energy: -1188.33213544074306

   => Energetics <=

    Nuclear Repulsion Energy =           1190.8727693310431732
    One-Electron Energy =               -3996.7228025707427150
    Two-Electron Energy =                1707.2686049603635183
    DFT Exchange-Correlation Energy =     -89.7370952759722655
    Empirical Dispersion Energy =          -0.0136118854343583
    VV10 Nonlocal Energy =                  0.0000000000000000
    Total Energy =                      -1188.3321354407428316

Computation Completed


Properties will be evaluated at   0.000000,   0.000000,   0.000000 [a0]

Properties computed using the SCF density matrix

  Nuclear Dipole Moment: [e a0]
     X:    25.7069      Y:    -1.3372      Z:    -3.8385

  Electronic Dipole Moment: [e a0]
     X:   -22.5918      Y:     0.8106      Z:     3.4724

  Dipole Moment: [e a0]
     X:     3.1151      Y:    -0.5266      Z:    -0.3661     Total:     3.1804

  Dipole Moment: [D]
     X:     7.9177      Y:    -1.3385      Z:    -0.9305     Total:     8.0838


*** tstop() called on cpu-spot-dy-c5n2xlarge-1 at Tue Jun 22 07:37:14 2021
Module time:
	user time   =     640.53 seconds =      10.68 minutes
	system time =      10.42 seconds =       0.17 minutes
	total time  =         88 seconds =       1.47 minutes
Total time:
	user time   =     640.53 seconds =      10.68 minutes
	system time =      10.42 seconds =       0.17 minutes
	total time  =         88 seconds =       1.47 minutes


Properties will be evaluated at   0.000000,   0.000000,   0.000000 [a0]
OEProp: No title given, name of density matrix used for the following properties is 'SCF density'


  Wiberg Bond Indices using Orthogonal Lowdin Orbitals:

  Irrep: 1 Size: 23 x 23

                 1                   2                   3                   4                   5

    1     0.00000000000000     1.31387596612568     0.10283634896920     0.01070956450533     0.02367419170314
    2     1.31387596612568     0.00000000000000     0.88410294178931     0.10631048437515     0.11233311307945
    3     0.10283634896920     0.88410294178931     0.00000000000000     1.40639389764991     1.30631761906197
    4     0.01070956450533     0.10631048437515     1.40639389764991     0.00000000000000     0.13689408953709
    5     0.02367419170314     0.11233311307945     1.30631761906197     0.13689408953709     0.00000000000000
    6     0.03500207524447     0.07694342395264     0.89860158681852     0.10342926015591     0.11308258273337
    7     0.11674548378278     0.03632232729545     0.10208411531691     0.01182340152722     0.02289424717401
    8     0.01525268144706     0.00386766132055     0.01413677631144     0.00207342811056     0.00336435145858
    9     0.01454625356270     0.00521395785672     0.00262137184629     0.00043318981742     0.00066455716564
   10     0.01718071397532     0.00305156470727     0.00159391255453     0.00024791664941     0.00125554085384
   11     0.13394311179613     0.02657059170390     0.00459032362765     0.00043152247134     0.00130227407608
   12     1.18526868297460     0.09765738337354     0.03326071279145     0.00374984734095     0.01188352584494
   13     0.00286823111928     0.00106504575643     0.00067751803319     0.00010924026790     0.00069944596709
   14     0.00048842088638     0.00016594738922     0.00008998062238     0.00001602859799     0.00002848657436
   15     0.24439545412501     2.29788884011824     0.15033147126924     0.04342071497970     0.02811747632659
   16     0.00452431017952     0.01776491927240     0.15835276763138     0.04574501997967     0.03133809149719
   17     0.00071369195932     0.00022328660642     0.00047167021874     0.00008579519184     0.00005165266681
   18     0.00128822925592     0.00049160073793     0.00209068486696     0.00040742892775     0.00033691649495
   19     0.91425882553118     0.07271391202152     0.01392474323545     0.00206911817131     0.00154891065901
   20     0.02317856767226     0.00230443502995     0.00074649951447     0.00012319800231     0.00010822453101
   21     0.00011331714348     0.00003942506274     0.00004891441006     0.00000747223685     0.00000749501345
   22     0.00007838512551     0.00002870802800     0.00001765347717     0.00000322270258     0.00000783292013
   23     0.00008838208787     0.00004326687470     0.00002330932313     0.00000448949999     0.00001794402841

                 6                   7                   8                   9                  10

    1     0.03500207524447     0.11674548378278     0.01525268144706     0.01454625356270     0.01718071397532
    2     0.07694342395264     0.03632232729545     0.00386766132055     0.00521395785672     0.00305156470727
    3     0.89860158681852     0.10208411531691     0.01413677631144     0.00262137184629     0.00159391255453
    4     0.10342926015591     0.01182340152722     0.00207342811056     0.00043318981742     0.00024791664941
    5     0.11308258273337     0.02289424717401     0.00336435145858     0.00066455716564     0.00125554085384
    6     0.00000000000000     1.05865035116757     0.12042244680717     0.02004915098251     0.01472500744639
    7     1.05865035116757     0.00000000000000     1.34898679163534     0.13232484302182     0.10831730586255
    8     0.12042244680717     1.34898679163534     0.00000000000000     1.49808574188533     0.13562806753703
    9     0.02004915098251     0.13232484302182     1.49808574188533     0.00000000000000     1.37803677798029
   10     0.01472500744639     0.10831730586255     0.13562806753703     1.37803677798029     0.00000000000000
   11     0.01592464809607     0.11981283323619     0.12123825062830     0.12519938496139     1.41106987044105
   12     0.11370126708250     1.27046926086961     0.12387733487039     0.10809540019040     0.12958198854324
   13     0.00649489964003     0.02275230959588     0.02518248524691     0.14380437191915     1.30970141228942
   14     0.00031546592542     0.00156701369851     0.00421082193003     0.04500288591412     0.08007963343363
   15     0.01694095726632     0.00872369528599     0.00109900964321     0.00429385441472     0.00195632677216
   16     2.32263444837516     0.16338753524378     0.07276022004510     0.00616747209415     0.01533393841184
   17     0.00148700023691     0.01231012864641     0.08351990507523     0.86032294085774     0.07438743413378
   18     0.02010567132053     0.07725142911229     0.85312197208330     0.08049158411271     0.01214948465550
   19     0.00271549347703     0.01274281364204     0.00171719691563     0.00139934742298     0.00194024986146
   20     0.00172858585115     0.01148502639498     0.00557839819662     0.01250961239441     0.07543065913769
   21     0.00013719824582     0.00076736233341     0.00221283838944     0.02315045238195     0.02054179287870
   22     0.00007215150498     0.00027625583160     0.00026982861443     0.00261468054744     0.01092361130393
   23     0.00015849034878     0.00053167847027     0.00031031545689     0.00505798732650     0.00901377485493

                11                  12                  13                  14                  15

    1     0.13394311179613     1.18526868297460     0.00286823111928     0.00048842088638     0.24439545412501
    2     0.02657059170390     0.09765738337354     0.00106504575643     0.00016594738922     2.29788884011824
    3     0.00459032362765     0.03326071279145     0.00067751803319     0.00008998062238     0.15033147126924
    4     0.00043152247134     0.00374984734095     0.00010924026790     0.00001602859799     0.04342071497970
    5     0.00130227407608     0.01188352584494     0.00069944596709     0.00002848657436     0.02811747632659
    6     0.01592464809607     0.11370126708250     0.00649489964003     0.00031546592542     0.01694095726632
    7     0.11981283323619     1.27046926086961     0.02275230959588     0.00156701369851     0.00872369528599
    8     0.12123825062830     0.12387733487039     0.02518248524691     0.00421082193003     0.00109900964321
    9     0.12519938496139     0.10809540019040     0.14380437191915     0.04500288591412     0.00429385441472
   10     1.41106987044105     0.12958198854324     1.30970141228942     0.08007963343363     0.00195632677216
   11     0.00000000000000     1.39641593993069     0.18437544865240     0.01865682932754     0.01231766181697
   12     1.39641593993069     0.00000000000000     0.02616603419967     0.00318010094933     0.03050201396429
   13     0.18437544865240     0.02616603419967     0.00000000000000     1.23812500046092     0.00085634529724
   14     0.01865682932754     0.00318010094933     1.23812500046092     0.00000000000000     0.00010154847878
   15     0.01231766181697     0.03050201396429     0.00085634529724     0.00010154847878     0.00000000000000
   16     0.00488463192268     0.04024387087809     0.00674003459192     0.00023866599943     0.00682941804092
   17     0.01217789752447     0.00526299873700     0.01996403596847     0.02118368326583     0.00016328013750
   18     0.00531417402655     0.01200811614842     0.00217497674675     0.00043498747108     0.00018619825069
   19     0.02009389912223     0.06522269184910     0.00033484005768     0.00006777923205     0.02785877660290
   20     0.85022831045019     0.07816521913620     0.03337164576986     0.00263949876249     0.00067067103069
   21     0.00230056246411     0.00052283898161     0.05691195267338     0.93179681259646     0.00001803221147
   22     0.00200014497758     0.00047318754486     0.07236799299715     0.94550312408504     0.00002327933730
   23     0.00214181040337     0.00060270584176     0.06945035495110     0.94719337805578     0.00004330614990

                16                  17                  18                  19                  20

    1     0.00452431017952     0.00071369195932     0.00128822925592     0.91425882553118     0.02317856767226
    2     0.01776491927240     0.00022328660642     0.00049160073793     0.07271391202152     0.00230443502995
    3     0.15835276763138     0.00047167021874     0.00209068486696     0.01392474323545     0.00074649951447
    4     0.04574501997967     0.00008579519184     0.00040742892775     0.00206911817131     0.00012319800231
    5     0.03133809149719     0.00005165266681     0.00033691649495     0.00154891065901     0.00010822453101
    6     2.32263444837516     0.00148700023691     0.02010567132053     0.00271549347703     0.00172858585115
    7     0.16338753524378     0.01231012864641     0.07725142911229     0.01274281364204     0.01148502639498
    8     0.07276022004510     0.08351990507523     0.85312197208330     0.00171719691563     0.00557839819662
    9     0.00616747209415     0.86032294085774     0.08049158411271     0.00139934742298     0.01250961239441
   10     0.01533393841184     0.07438743413378     0.01214948465550     0.00194024986146     0.07543065913769
   11     0.00488463192268     0.01217789752447     0.00531417402655     0.02009389912223     0.85022831045019
   12     0.04024387087809     0.00526299873700     0.01200811614842     0.06522269184910     0.07816521913620
   13     0.00674003459192     0.01996403596847     0.00217497674675     0.00033484005768     0.03337164576986
   14     0.00023866599943     0.02118368326583     0.00043498747108     0.00006777923205     0.00263949876249
   15     0.00682941804092     0.00016328013750     0.00018619825069     0.02785877660290     0.00067067103069
   16     0.00000000000000     0.00037851822999     0.01920394468296     0.00049839664088     0.00060758705538
   17     0.00037851822999     0.00000000000000     0.01042761550180     0.00010846938146     0.00117170604192
   18     0.01920394468296     0.01042761550180     0.00000000000000     0.00060411299406     0.00047955876709
   19     0.00049839664088     0.00010846938146     0.00060411299406     0.00000000000000     0.00625836892550
   20     0.00060758705538     0.00117170604192     0.00047955876709     0.00625836892550     0.00000000000000
   21     0.00010517203812     0.01393070537232     0.00016894730425     0.00001781956435     0.00055093375788
   22     0.00006372296870     0.00114277217598     0.00004421512668     0.00000789432448     0.00027339238395
   23     0.00016186114794     0.00219208589746     0.00003267123217     0.00000913667925     0.00034661983091

                21                  22                  23

    1     0.00011331714348     0.00007838512551     0.00008838208787
    2     0.00003942506274     0.00002870802800     0.00004326687470
    3     0.00004891441006     0.00001765347717     0.00002330932313
    4     0.00000747223685     0.00000322270258     0.00000448949999
    5     0.00000749501345     0.00000783292013     0.00001794402841
    6     0.00013719824582     0.00007215150498     0.00015849034878
    7     0.00076736233341     0.00027625583160     0.00053167847027
    8     0.00221283838944     0.00026982861443     0.00031031545689
    9     0.02315045238195     0.00261468054744     0.00505798732650
   10     0.02054179287870     0.01092361130393     0.00901377485493
   11     0.00230056246411     0.00200014497758     0.00214181040337
   12     0.00052283898161     0.00047318754486     0.00060270584176
   13     0.05691195267338     0.07236799299715     0.06945035495110
   14     0.93179681259646     0.94550312408504     0.94719337805578
   15     0.00001803221147     0.00002327933730     0.00004330614990
   16     0.00010517203812     0.00006372296870     0.00016186114794
   17     0.01393070537232     0.00114277217598     0.00219208589746
   18     0.00016894730425     0.00004421512668     0.00003267123217
   19     0.00001781956435     0.00000789432448     0.00000913667925
   20     0.00055093375788     0.00027339238395     0.00034661983091
   21     0.00000000000000     0.04193020684946     0.04052335816270
   22     0.04193020684946     0.00000000000000     0.04055008532031
   23     0.04052335816270     0.04055008532031     0.00000000000000



  Atomic Valences: 

 #  #
 Irrep: 1
      1:  4.1610309
      2:  5.0589788
      3:  5.0833148
      4:  1.8744883
      5:  1.7959286
      6:  4.9433222
      7:  4.6402262
      8:  4.4369165
      9:  4.4700858
     10:  4.8121470
     11:  4.4709901
     12:  4.7363111
     13:  3.2241936
     14:  4.2410861
     15:  2.8767383
     16:  2.9179645
     17:  1.1216773
     18:  1.0988145
     19:  1.1461128
     20:  1.1079567
     21:  1.1358036
     22:  1.1186723
     23:  1.1184970


    Psi4 stopped on: Tuesday, 22 June 2021 07:37AM
    Psi4 wall time for execution: 0:01:28.59

*** Psi4 exiting successfully. Buy a developer a beer!
