
    -----------------------------------------------------------------------
          Psi4: An Open-Source Ab Initio Electronic Structure Package
                               Psi4 1.3.2 release

                         Git: Rev {HEAD} ecbda83 


    R. M. Parrish, L. A. Burns, D. G. A. Smith, A. C. Simmonett,
    A. E. DePrince III, E. G. Hohenstein, U. Bozkaya, A. Yu. Sokolov,
    R. Di Remigio, R. M. Richard, J. F. Gonthier, A. M. James,
    H. R. McAlexander, A. Kumar, M. Saitow, X. Wang, B. P. Pritchard,
    P. Verma, H. F. Schaefer III, K. Patkowski, R. A. King, E. F. Valeev,
    F. A. Evangelista, J. M. Turney, T. D. Crawford, and C. D. Sherrill,
    J. Chem. Theory Comput. 13(7) pp 3185--3197 (2017).
    (doi: 10.1021/acs.jctc.7b00174)


                         Additional Contributions by
    P. Kraus, H. Kruse, M. H. Lechner, M. C. Schieber, R. A. Shaw,
    A. Alenaizan, R. Galvelis, Z. L. Glick, S. Lehtola, and J. P. Misiewicz

    -----------------------------------------------------------------------


    Psi4 started on: Tuesday, 22 June 2021 07:24AM

    Process ID: 31850
    Host:       cpu-spot-dy-c5n2xlarge-1
    PSIDATADIR: /fsx/users/francis/anaconda3/envs/poltype-dev/share/psi4
    Memory:     500.0 MiB
    Threads:    1
    
  ==> Input File <==

--------------------------------------------------------------------------
molecule { 
0 1
 N   -0.705894   -1.621413   -0.262414
 C   -1.966032   -1.664636    0.272847
 C   -2.414885   -0.402294    1.046734
 F   -3.597741   -0.003195    0.525818
 F   -2.620165   -0.778434    2.334291
 C   -1.456087    0.820075    1.061917
 C   -0.147639    0.652825    0.414172
 C    0.777749    1.704917    0.425210
 C    2.016296    1.571084   -0.172693
 C    2.346715    0.368482   -0.817664
 C    1.433570   -0.682376   -0.844060
 C    0.190782   -0.550724   -0.219907
 S    3.939350    0.117328   -1.572106
 C    4.013335    1.525187   -2.719354
 O   -2.690214   -2.627080    0.173076
 O   -1.827000    1.833431    1.608462
 H    2.734618    2.382558   -0.124791
 H    0.498329    2.623411    0.931407
 H   -0.425290   -2.466313   -0.745784
 H    1.689218   -1.602748   -1.361159
 H    3.251044    1.434721   -3.495825
 H    3.913238    2.480198   -2.200267
 H    5.001085    1.485701   -3.185316
}
memory 16GB
set_num_threads(8)
psi4_io.set_default_path("/scratch/Psi4-ligand")
set freeze_core True
E, wfn = energy('wb97x-d/6-311++g**',return_wfn=True)
oeprop(wfn,"WIBERG_LOWDIN_INDICES")
clean()
--------------------------------------------------------------------------

  Memory set to  14.901 GiB by Python driver.
  Threads set to 8 by Python driver.

*** tstart() called on cpu-spot-dy-c5n2xlarge-1
*** at Tue Jun 22 07:24:46 2021

   => Loading Basis Set <=

    Name: 6-311++G**
    Role: ORBITAL
    Keyword: BASIS
    atoms 1             entry N          line   140 file /fsx/users/francis/anaconda3/envs/poltype-dev/share/psi4/basis/6-311ppgss.gbs 
    atoms 2-3, 6-12, 14 entry C          line   119 file /fsx/users/francis/anaconda3/envs/poltype-dev/share/psi4/basis/6-311ppgss.gbs 
    atoms 4-5           entry F          line   182 file /fsx/users/francis/anaconda3/envs/poltype-dev/share/psi4/basis/6-311ppgss.gbs 
    atoms 13            entry S          line   419 file /fsx/users/francis/anaconda3/envs/poltype-dev/share/psi4/basis/6-311ppgss.gbs 
    atoms 15-16         entry O          line   161 file /fsx/users/francis/anaconda3/envs/poltype-dev/share/psi4/basis/6-311ppgss.gbs 
    atoms 17-23         entry H          line    42 file /fsx/users/francis/anaconda3/envs/poltype-dev/share/psi4/basis/6-311ppgss.gbs 


         ---------------------------------------------------------
                                   SCF
               by Justin Turney, Rob Parrish, Andy Simmonett
                          and Daniel G. A. Smith
                              RKS Reference
                        8 Threads,  15258 MiB Core
         ---------------------------------------------------------

  ==> Geometry <==

    Molecular point group: c1
    Full point group: C1

    Geometry (in Angstrom), charge = 0, multiplicity = 1:

       Center              X                  Y                   Z               Mass       
    ------------   -----------------  -----------------  -----------------  -----------------
         N           -0.705894115120    -1.621413005918    -0.262413922149    14.003074004430
         C           -1.966032115120    -1.664636005918     0.272847077851    12.000000000000
         C           -2.414885115120    -0.402294005918     1.046734077851    12.000000000000
         F           -3.597741115120    -0.003195005918     0.525818077851    18.998403162730
         F           -2.620165115120    -0.778434005918     2.334291077851    18.998403162730
         C           -1.456087115120     0.820074994082     1.061917077851    12.000000000000
         C           -0.147639115120     0.652824994082     0.414172077851    12.000000000000
         C            0.777748884880     1.704916994082     0.425210077851    12.000000000000
         C            2.016295884880     1.571083994082    -0.172692922149    12.000000000000
         C            2.346714884880     0.368481994082    -0.817663922149    12.000000000000
         C            1.433569884880    -0.682376005918    -0.844059922149    12.000000000000
         C            0.190781884880    -0.550724005918    -0.219906922149    12.000000000000
         S            3.939349884880     0.117327994082    -1.572105922149    31.972071174400
         C            4.013334884880     1.525186994082    -2.719353922149    12.000000000000
         O           -2.690214115120    -2.627080005918     0.173076077851    15.994914619570
         O           -1.827000115120     1.833430994082     1.608462077851    15.994914619570
         H            2.734617884880     2.382557994082    -0.124790922149     1.007825032230
         H            0.498328884880     2.623410994082     0.931407077851     1.007825032230
         H           -0.425290115120    -2.466313005918    -0.745783922149     1.007825032230
         H            1.689217884880    -1.602748005918    -1.361158922149     1.007825032230
         H            3.251043884880     1.434720994082    -3.495824922149     1.007825032230
         H            3.913237884880     2.480197994082    -2.200266922149     1.007825032230
         H            5.001084884880     1.485700994082    -3.185315922149     1.007825032230

  Running in c1 symmetry.

  Rotational constants: A =      0.03846  B =      0.00834  C =      0.00727 [cm^-1]
  Rotational constants: A =   1152.91106  B =    249.95897  C =    218.00627 [MHz]
  Nuclear repulsion = 1188.221584710555817

  Charge       = 0
  Multiplicity = 1
  Electrons    = 124
  Nalpha       = 62
  Nbeta        = 62

  ==> Algorithm <==

  SCF Algorithm Type is DF.
  DIIS enabled.
  MOM disabled.
  Fractional occupation disabled.
  Guess Type is SAD.
  Energy threshold   = 1.00e-06
  Density threshold  = 1.00e-06
  Integral threshold = 0.00e+00

  ==> Primary Basis <==

  Basis Set: 6-311++G**
    Blend: 6-311++G**
    Number of shells: 199
    Number of basis function: 409
    Number of Cartesian functions: 425
    Spherical Harmonics?: true
    Max angular momentum: 2

  ==> DFT Potential <==

   => Composite Functional: WB97X-D <= 

    wB97X-D Hyb-GGA Exchange-Correlation Functional

    J.-D. Chai and M. Head-Gordon, Phys. Chem. Chem. Phys. 10, 6615 (2008)

    Deriv               =              1
    GGA                 =           TRUE
    Meta                =          FALSE

    Exchange Hybrid     =           TRUE
    MP2 Hybrid          =          FALSE

   => Exchange-Correlation Functionals <=

    1.0000   wB97D range-separated functional

   => Exact (HF) Exchange <=

    0.7780            HF,LR [omega = 0.2000]
    0.2220               HF 

   => Molecular Quadrature <=

    Radial Scheme          =       TREUTLER
    Pruning Scheme         =           FLAT
    Nuclear Scheme         =       TREUTLER

    BS radius alpha        =              1
    Pruning alpha          =              1
    Radial Points          =             75
    Spherical Points       =            302
    Total Points           =         520866
    Total Blocks           =           3883
    Max Points             =            256
    Max Functions          =            315

   => WB97X-D: Empirical Dispersion <=

    Chai and Head-Gordon Dispersion Correction
    Chai, J.-D.; Head-Gordon, M. (2010), J. Chem. Phys., 132: 6615-6620

        s6 =       1.000000

   => Loading Basis Set <=

    Name: (6-311++G** AUX)
    Role: JKFIT
    Keyword: DF_BASIS_SCF
    atoms 1             entry N          line   224 file /fsx/users/francis/anaconda3/envs/poltype-dev/share/psi4/basis/aug-cc-pvtz-jkfit.gbs 
    atoms 2-3, 6-12, 14 entry C          line   162 file /fsx/users/francis/anaconda3/envs/poltype-dev/share/psi4/basis/aug-cc-pvtz-jkfit.gbs 
    atoms 4-5           entry F          line   348 file /fsx/users/francis/anaconda3/envs/poltype-dev/share/psi4/basis/aug-cc-pvtz-jkfit.gbs 
    atoms 13            entry S          line   730 file /fsx/users/francis/anaconda3/envs/poltype-dev/share/psi4/basis/aug-cc-pvtz-jkfit.gbs 
    atoms 15-16         entry O          line   286 file /fsx/users/francis/anaconda3/envs/poltype-dev/share/psi4/basis/aug-cc-pvtz-jkfit.gbs 
    atoms 17-23         entry H          line    70 file /fsx/users/francis/anaconda3/envs/poltype-dev/share/psi4/basis/aug-cc-pvtz-jkfit.gbs 

  ==> Pre-Iterations <==

   -------------------------------------------------------
    Irrep   Nso     Nmo     Nalpha   Nbeta   Ndocc  Nsocc
   -------------------------------------------------------
     A        409     409       0       0       0       0
   -------------------------------------------------------
    Total     409     409      62      62      62       0
   -------------------------------------------------------

  ==> Integral Setup <==

  ==> DiskDFJK: Density-Fitted J/K Matrices <==

    J tasked:                  Yes
    K tasked:                  Yes
    wK tasked:                 Yes
    Omega:               2.000E-01
    OpenMP threads:              8
    Integrals threads:           8
    Memory [MiB]:             7965
    Algorithm:                Core
    Integral Cache:           NONE
    Schwarz Cutoff:          1E-12
    Fitting Condition:       1E-10

   => Auxiliary Basis Set <=

  Basis Set: (6-311++G** AUX)
    Blend: AUG-CC-PVTZ-JKFIT
    Number of shells: 590
    Number of basis function: 2028
    Number of Cartesian functions: 2530
    Spherical Harmonics?: true
    Max angular momentum: 4

  Cached 100.0% of DFT collocation blocks in 3.397 [GiB].

  Minimum eigenvalue in the overlap matrix is 2.6472528140E-07.
  Using Symmetric Orthogonalization.

  SCF Guess: Superposition of Atomic Densities via on-the-fly atomic UHF.

  ==> Iterations <==

                           Total Energy        Delta E     RMS |[F,P]|

   @DF-RKS iter SAD: -1187.86092784191305   -1.18786e+03   0.00000e+00 
   @DF-RKS iter   1: -1187.75765824171185    1.03270e-01   2.84494e-03 DIIS
   @DF-RKS iter   2: -1187.80822623193353   -5.05680e-02   2.89313e-03 DIIS
   @DF-RKS iter   3: -1188.30032076815883   -4.92095e-01   6.87492e-04 DIIS
   @DF-RKS iter   4: -1188.32781253093003   -2.74918e-02   2.05263e-04 DIIS
   @DF-RKS iter   5: -1188.33084137848596   -3.02885e-03   5.56506e-05 DIIS
   @DF-RKS iter   6: -1188.33117518190988   -3.33803e-04   1.75933e-05 DIIS
   @DF-RKS iter   7: -1188.33122060746928   -4.54256e-05   7.14746e-06 DIIS
   @DF-RKS iter   8: -1188.33123499910607   -1.43916e-05   2.85828e-06 DIIS
   @DF-RKS iter   9: -1188.33123819891807   -3.19981e-06   1.34825e-06 DIIS
   @DF-RKS iter  10: -1188.33123852131757   -3.22400e-07   6.05176e-07 DIIS
  Energy and wave function converged.


  ==> Post-Iterations <==

    Orbital Energies [Eh]
    ---------------------

    Doubly Occupied:                                                      

       1A    -89.043374     2A    -24.842891     3A    -24.841890  
       4A    -19.275302     5A    -19.263364     6A    -14.519983  
       7A    -10.488432     8A    -10.439373     9A    -10.416168  
      10A    -10.393755    11A    -10.367034    12A    -10.337715  
      13A    -10.335826    14A    -10.334742    15A    -10.334257  
      16A    -10.326404    17A     -8.083961    18A     -6.033516  
      19A     -6.029423    20A     -6.022644    21A     -1.392921  
      22A     -1.331455    23A     -1.195500    24A     -1.186282  
      25A     -1.101685    26A     -1.006864    27A     -0.941286  
      28A     -0.906382    29A     -0.890253    30A     -0.867954  
      31A     -0.795388    32A     -0.769016    33A     -0.756211  
      34A     -0.744458    35A     -0.699963    36A     -0.685946  
      37A     -0.673453    38A     -0.648810    39A     -0.632081  
      40A     -0.594220    41A     -0.584854    42A     -0.572343  
      43A     -0.565514    44A     -0.560071    45A     -0.558749  
      46A     -0.555739    47A     -0.541421    48A     -0.538016  
      49A     -0.524966    50A     -0.519061    51A     -0.511838  
      52A     -0.500786    53A     -0.498270    54A     -0.481086  
      55A     -0.477817    56A     -0.444899    57A     -0.427539  
      58A     -0.398831    59A     -0.382130    60A     -0.368410  
      61A     -0.344474    62A     -0.327097  

    Virtual:                                                              

      63A     -0.049902    64A      0.010321    65A      0.027267  
      66A      0.034192    67A      0.044108    68A      0.049360  
      69A      0.058008    70A      0.064967    71A      0.066013  
      72A      0.072542    73A      0.080034    74A      0.088009  
      75A      0.092028    76A      0.098410    77A      0.104705  
      78A      0.107325    79A      0.114694    80A      0.121984  
      81A      0.125705    82A      0.129131    83A      0.131958  
      84A      0.136679    85A      0.137164    86A      0.140973  
      87A      0.150625    88A      0.157075    89A      0.161653  
      90A      0.165478    91A      0.169019    92A      0.172452  
      93A      0.173372    94A      0.178041    95A      0.183652  
      96A      0.186972    97A      0.189824    98A      0.192235  
      99A      0.199266   100A      0.201575   101A      0.206071  
     102A      0.208700   103A      0.211989   104A      0.220546  
     105A      0.222928   106A      0.228717   107A      0.234772  
     108A      0.237851   109A      0.242946   110A      0.250127  
     111A      0.250989   112A      0.255100   113A      0.256271  
     114A      0.267156   115A      0.268695   116A      0.271904  
     117A      0.278552   118A      0.281847   119A      0.287653  
     120A      0.290558   121A      0.297006   122A      0.300986  
     123A      0.305040   124A      0.310060   125A      0.314722  
     126A      0.317020   127A      0.318616   128A      0.329399  
     129A      0.330950   130A      0.335100   131A      0.347595  
     132A      0.350421   133A      0.352928   134A      0.362097  
     135A      0.362773   136A      0.368881   137A      0.376295  
     138A      0.377921   139A      0.383935   140A      0.388855  
     141A      0.390563   142A      0.394269   143A      0.400329  
     144A      0.410940   145A      0.421042   146A      0.427612  
     147A      0.428995   148A      0.434854   149A      0.439208  
     150A      0.446505   151A      0.460971   152A      0.467753  
     153A      0.468026   154A      0.470127   155A      0.494643  
     156A      0.504204   157A      0.510733   158A      0.519341  
     159A      0.529197   160A      0.538930   161A      0.543235  
     162A      0.549563   163A      0.579654   164A      0.581753  
     165A      0.598638   166A      0.606505   167A      0.612061  
     168A      0.617397   169A      0.619990   170A      0.633950  
     171A      0.640946   172A      0.647574   173A      0.659815  
     174A      0.674631   175A      0.682493   176A      0.684366  
     177A      0.696156   178A      0.700840   179A      0.725457  
     180A      0.734520   181A      0.744343   182A      0.749297  
     183A      0.749894   184A      0.753017   185A      0.764209  
     186A      0.769140   187A      0.779114   188A      0.788703  
     189A      0.798964   190A      0.801619   191A      0.814866  
     192A      0.828547   193A      0.835466   194A      0.852153  
     195A      0.869189   196A      0.877889   197A      0.895498  
     198A      0.904060   199A      0.921922   200A      0.927936  
     201A      0.941562   202A      0.947050   203A      0.950289  
     204A      0.955352   205A      0.972094   206A      0.983580  
     207A      0.996354   208A      1.000735   209A      1.017621  
     210A      1.025307   211A      1.032805   212A      1.045911  
     213A      1.057235   214A      1.064131   215A      1.090610  
     216A      1.116363   217A      1.118895   218A      1.132575  
     219A      1.139133   220A      1.159842   221A      1.173659  
     222A      1.188125   223A      1.195545   224A      1.198069  
     225A      1.204675   226A      1.220975   227A      1.231084  
     228A      1.260914   229A      1.268018   230A      1.284315  
     231A      1.294455   232A      1.309685   233A      1.314893  
     234A      1.338223   235A      1.360229   236A      1.384103  
     237A      1.407033   238A      1.467624   239A      1.470887  
     240A      1.483100   241A      1.497846   242A      1.514170  
     243A      1.520895   244A      1.542156   245A      1.556779  
     246A      1.575554   247A      1.577714   248A      1.591259  
     249A      1.597232   250A      1.605527   251A      1.624033  
     252A      1.633307   253A      1.636773   254A      1.650292  
     255A      1.659060   256A      1.667830   257A      1.682496  
     258A      1.686120   259A      1.695568   260A      1.699827  
     261A      1.734717   262A      1.761159   263A      1.767118  
     264A      1.778145   265A      1.792808   266A      1.811664  
     267A      1.820498   268A      1.828039   269A      1.855617  
     270A      1.862705   271A      1.890174   272A      1.907213  
     273A      1.921811   274A      1.929162   275A      1.947974  
     276A      1.950656   277A      1.982578   278A      1.989713  
     279A      2.001968   280A      2.008525   281A      2.021334  
     282A      2.029998   283A      2.041790   284A      2.052530  
     285A      2.072681   286A      2.076773   287A      2.096420  
     288A      2.104394   289A      2.125719   290A      2.166604  
     291A      2.186217   292A      2.208915   293A      2.242972  
     294A      2.246151   295A      2.276730   296A      2.300075  
     297A      2.313525   298A      2.321770   299A      2.323592  
     300A      2.369925   301A      2.427380   302A      2.477097  
     303A      2.518685   304A      2.523127   305A      2.533584  
     306A      2.543158   307A      2.594031   308A      2.607252  
     309A      2.612369   310A      2.644665   311A      2.654744  
     312A      2.677503   313A      2.750508   314A      2.764316  
     315A      2.783754   316A      2.789743   317A      2.808185  
     318A      2.812918   319A      2.827924   320A      2.838016  
     321A      2.856115   322A      2.886229   323A      2.889486  
     324A      2.917778   325A      2.922477   326A      2.943819  
     327A      2.954643   328A      2.971639   329A      2.992748  
     330A      3.031952   331A      3.037850   332A      3.046838  
     333A      3.059715   334A      3.086105   335A      3.098064  
     336A      3.129362   337A      3.164318   338A      3.210752  
     339A      3.284931   340A      3.296111   341A      3.311371  
     342A      3.361606   343A      3.417353   344A      3.424904  
     345A      3.428944   346A      3.478173   347A      3.531186  
     348A      3.541756   349A      3.601149   350A      3.630411  
     351A      3.650759   352A      3.689739   353A      3.708194  
     354A      3.779920   355A      3.805383   356A      3.816127  
     357A      3.843459   358A      3.849436   359A      3.856637  
     360A      3.899318   361A      3.913824   362A      3.949036  
     363A      3.974879   364A      4.003351   365A      4.024852  
     366A      4.074644   367A      4.115924   368A      4.173547  
     369A      4.243601   370A      4.306040   371A      4.362986  
     372A      4.524367   373A      4.822389   374A      4.888957  
     375A      4.915866   376A      5.001522   377A      5.144902  
     378A      5.153659   379A      5.208660   380A      5.326843  
     381A      5.338324   382A      5.834030   383A      5.882641  
     384A      6.439490   385A      6.469772   386A      6.532942  
     387A      6.578196   388A      6.666834   389A      6.867400  
     390A      8.098201   391A     17.493697   392A     17.583274  
     393A     17.640976   394A     23.630811   395A     23.744098  
     396A     23.969518   397A     24.001786   398A     24.017345  
     399A     24.030745   400A     24.041077   401A     24.135023  
     402A     24.186703   403A     24.276631   404A     35.757370  
     405A     50.140736   406A     50.159162   407A     66.889836  
     408A     66.971937   409A    189.360485  

    Final Occupation by Irrep:
              A 
    DOCC [    62 ]

  @DF-RKS Final Energy: -1188.33123852131757

   => Energetics <=

    Nuclear Repulsion Energy =           1188.2215847105558169
    One-Electron Energy =               -3991.3674813497973446
    Two-Electron Energy =                1704.5625390277352835
    DFT Exchange-Correlation Energy =     -89.7342311977442222
    Empirical Dispersion Energy =          -0.0136497120669852
    VV10 Nonlocal Energy =                  0.0000000000000000
    Total Energy =                      -1188.3312385213175730

Computation Completed


Properties will be evaluated at   0.000000,   0.000000,   0.000000 [a0]

Properties computed using the SCF density matrix

  Nuclear Dipole Moment: [e a0]
     X:    21.5703      Y:     6.6826      Z:   -12.2753

  Electronic Dipole Moment: [e a0]
     X:   -19.1503      Y:    -6.2203      Z:    10.7666

  Dipole Moment: [e a0]
     X:     2.4200      Y:     0.4623      Z:    -1.5088     Total:     2.8891

  Dipole Moment: [D]
     X:     6.1511      Y:     1.1751      Z:    -3.8349     Total:     7.3432


*** tstop() called on cpu-spot-dy-c5n2xlarge-1 at Tue Jun 22 07:26:14 2021
Module time:
	user time   =     640.93 seconds =      10.68 minutes
	system time =      10.38 seconds =       0.17 minutes
	total time  =         88 seconds =       1.47 minutes
Total time:
	user time   =     640.93 seconds =      10.68 minutes
	system time =      10.38 seconds =       0.17 minutes
	total time  =         88 seconds =       1.47 minutes


Properties will be evaluated at   0.000000,   0.000000,   0.000000 [a0]
OEProp: No title given, name of density matrix used for the following properties is 'SCF density'


  Wiberg Bond Indices using Orthogonal Lowdin Orbitals:

  Irrep: 1 Size: 23 x 23

                 1                   2                   3                   4                   5

    1     0.00000000000000     1.31883877461910     0.10124989591036     0.01253060581483     0.01391521298738
    2     1.31883877461910     0.00000000000000     0.88421310855208     0.11014179783325     0.11124490111915
    3     0.10124989591036     0.88421310855208     0.00000000000000     1.36703031869148     1.35644200604075
    4     0.01253060581483     0.11014179783325     1.36703031869148     0.00000000000000     0.13789544330253
    5     0.01391521298738     0.11124490111915     1.35644200604075     0.13789544330253     0.00000000000000
    6     0.03435694247922     0.07400181102890     0.89625411128562     0.10869163676233     0.10988552693237
    7     0.11923007920574     0.03626876112500     0.09875321134868     0.01275803877246     0.01363490215798
    8     0.01504374455447     0.00375788659069     0.01330751695297     0.00195234789764     0.00197970210190
    9     0.01541896425698     0.00587740855163     0.00243918764962     0.00036280628826     0.00035271915485
   10     0.01749578794609     0.00308005629817     0.00148171329358     0.00039315594387     0.00050027012869
   11     0.13130622498504     0.02552862007549     0.00415483365193     0.00047777202105     0.00053052556952
   12     1.19153243763729     0.09723104034762     0.03123626694122     0.00418848432680     0.00490725387552
   13     0.00256011615414     0.00076953413107     0.00045079489169     0.00012962162557     0.00015600569478
   14     0.00045718606666     0.00013851162851     0.00009735953172     0.00002724568919     0.00003487251135
   15     0.24752708319738     2.29335675870434     0.15101042377434     0.04040841097553     0.03825310982952
   16     0.00518393643952     0.01582953640764     0.15990358422571     0.04410186152910     0.04142805611918
   17     0.00073712634796     0.00023781949908     0.00050157749581     0.00007240009611     0.00006287002171
   18     0.00128815185535     0.00048738560665     0.00210137933195     0.00032956320138     0.00029684572333
   19     0.91314352158209     0.07312497242154     0.01370333421110     0.00175061710667     0.00164747150242
   20     0.02301512093246     0.00225120895663     0.00071846430099     0.00011286599551     0.00010404777655
   21     0.00004462911823     0.00001929953445     0.00001594492684     0.00000515656680     0.00000604108095
   22     0.00007665278729     0.00002582172479     0.00003043892456     0.00000501720769     0.00000624397654
   23     0.00006923939537     0.00002317744394     0.00001016494646     0.00000190602246     0.00000315117494

                 6                   7                   8                   9                  10

    1     0.03435694247922     0.11923007920574     0.01504374455447     0.01541896425698     0.01749578794609
    2     0.07400181102890     0.03626876112500     0.00375788659069     0.00587740855163     0.00308005629817
    3     0.89625411128562     0.09875321134868     0.01330751695297     0.00243918764962     0.00148171329358
    4     0.10869163676233     0.01275803877246     0.00195234789764     0.00036280628826     0.00039315594387
    5     0.10988552693237     0.01363490215798     0.00197970210190     0.00035271915485     0.00050027012869
    6     0.00000000000000     1.05835018750946     0.11945341264978     0.01925143708247     0.01552421017181
    7     1.05835018750946     0.00000000000000     1.33414824085795     0.13075254302212     0.11228065291824
    8     0.11945341264978     1.33414824085795     0.00000000000000     1.51278105064957     0.13618734869744
    9     0.01925143708247     0.13075254302212     1.51278105064957     0.00000000000000     1.38219399578292
   10     0.01552421017181     0.11228065291824     0.13618734869744     1.38219399578292     0.00000000000000
   11     0.01503196225248     0.11971679947337     0.12438692623918     0.12937944251793     1.45541221579108
   12     0.11596008505210     1.29651042945598     0.12415593252160     0.11348883192551     0.13108811488320
   13     0.00343741841511     0.01398726083050     0.02371800588080     0.14443266050927     1.26978329787887
   14     0.00076078783653     0.00431175835782     0.00428898951215     0.04132744583711     0.08587154364483
   15     0.01543426476793     0.00987266625710     0.00113413144782     0.00519346544605     0.00200152261765
   16     2.32364511725619     0.16372075857843     0.07409851819897     0.00553715366635     0.01688290447239
   17     0.00149380706148     0.01254611094059     0.08272457178554     0.86115048892834     0.07529940375993
   18     0.02028716713984     0.07680563308591     0.85280760425272     0.08097303030034     0.01219224417801
   19     0.00257252584890     0.01262449307755     0.00169415142351     0.00136664590397     0.00197748181799
   20     0.00169948921331     0.01144854854967     0.00565367876763     0.01258548344364     0.07604254686271
   21     0.00010021204997     0.00047080085659     0.00040256498479     0.00570577267735     0.01522456028404
   22     0.00014817793036     0.00066913882177     0.00172552007901     0.01428012594701     0.01501010002445
   23     0.00007113830509     0.00042469668102     0.00040160986121     0.00261354558665     0.01284815717162

                11                  12                  13                  14                  15

    1     0.13130622498504     1.19153243763729     0.00256011615414     0.00045718606666     0.24752708319738
    2     0.02552862007549     0.09723104034762     0.00076953413107     0.00013851162851     2.29335675870434
    3     0.00415483365193     0.03123626694122     0.00045079489169     0.00009735953172     0.15101042377434
    4     0.00047777202105     0.00418848432680     0.00012962162557     0.00002724568919     0.04040841097553
    5     0.00053052556952     0.00490725387552     0.00015600569478     0.00003487251135     0.03825310982952
    6     0.01503196225248     0.11596008505210     0.00343741841511     0.00076078783653     0.01543426476793
    7     0.11971679947337     1.29651042945598     0.01398726083050     0.00431175835782     0.00987266625710
    8     0.12438692623918     0.12415593252160     0.02371800588080     0.00428898951215     0.00113413144782
    9     0.12937944251793     0.11348883192551     0.14443266050927     0.04132744583711     0.00519346544605
   10     1.45541221579108     0.13108811488320     1.26978329787887     0.08587154364483     0.00200152261765
   11     0.00000000000000     1.36096296370085     0.17483492770645     0.02476145259561     0.01126880249990
   12     1.36096296370085     0.00000000000000     0.02147091349312     0.00296717781458     0.03056859622540
   13     0.17483492770645     0.02147091349312     0.00000000000000     1.24273253832405     0.00040225344804
   14     0.02476145259561     0.00296717781458     1.24273253832405     0.00000000000000     0.00011024421492
   15     0.01126880249990     0.03056859622540     0.00040225344804     0.00011024421492     0.00000000000000
   16     0.00428952806119     0.04375754144694     0.00350553430175     0.00096387276960     0.00566935360851
   17     0.01218288518613     0.00538704689000     0.02318032799691     0.01283619218953     0.00018632911231
   18     0.00533974254267     0.01187017672416     0.00226724413293     0.00036154673336     0.00019590521907
   19     0.02025556316027     0.06560127443916     0.00036632453865     0.00007427565618     0.02853757679512
   20     0.85093164885869     0.07701000809006     0.03219172198424     0.00255438546176     0.00063076496004
   21     0.00351922382762     0.00034174188565     0.06637396690891     0.94442449016109     0.00001343239335
   22     0.00296725276270     0.00041250727664     0.06576185881087     0.94090706552252     0.00001445565143
   23     0.00223300423553     0.00041805304551     0.07157314183420     0.94564245819415     0.00001128579717

                16                  17                  18                  19                  20

    1     0.00518393643952     0.00073712634796     0.00128815185535     0.91314352158209     0.02301512093246
    2     0.01582953640764     0.00023781949908     0.00048738560665     0.07312497242154     0.00225120895663
    3     0.15990358422571     0.00050157749581     0.00210137933195     0.01370333421110     0.00071846430099
    4     0.04410186152910     0.00007240009611     0.00032956320138     0.00175061710667     0.00011286599551
    5     0.04142805611918     0.00006287002171     0.00029684572333     0.00164747150242     0.00010404777655
    6     2.32364511725619     0.00149380706148     0.02028716713984     0.00257252584890     0.00169948921331
    7     0.16372075857843     0.01254611094059     0.07680563308591     0.01262449307755     0.01144854854967
    8     0.07409851819897     0.08272457178554     0.85280760425272     0.00169415142351     0.00565367876763
    9     0.00553715366635     0.86115048892834     0.08097303030034     0.00136664590397     0.01258548344364
   10     0.01688290447239     0.07529940375993     0.01219224417801     0.00197748181799     0.07604254686271
   11     0.00428952806119     0.01218288518613     0.00533974254267     0.02025556316027     0.85093164885869
   12     0.04375754144694     0.00538704689000     0.01187017672416     0.06560127443916     0.07701000809006
   13     0.00350553430175     0.02318032799691     0.00226724413293     0.00036632453865     0.03219172198424
   14     0.00096387276960     0.01283619218953     0.00036154673336     0.00007427565618     0.00255438546176
   15     0.00566935360851     0.00018632911231     0.00019590521907     0.02853757679512     0.00063076496004
   16     0.00000000000000     0.00035235829100     0.02131766372446     0.00053057380482     0.00057929104335
   17     0.00035235829100     0.00000000000000     0.01009460563816     0.00010810756637     0.00116292625930
   18     0.02131766372446     0.01009460563816     0.00000000000000     0.00060315000441     0.00048777781019
   19     0.00053057380482     0.00010810756637     0.00060315000441     0.00000000000000     0.00641503266992
   20     0.00057929104335     0.00116292625930     0.00048777781019     0.00641503266992     0.00000000000000
   21     0.00010751863806     0.00119181939855     0.00003162960401     0.00001611629409     0.00037013898348
   22     0.00013723229256     0.00598558621570     0.00011093046607     0.00001357957152     0.00047870843143
   23     0.00009981730055     0.00066792614255     0.00003883896087     0.00000836855775     0.00020628104141

                21                  22                  23

    1     0.00004462911823     0.00007665278729     0.00006923939537
    2     0.00001929953445     0.00002582172479     0.00002317744394
    3     0.00001594492684     0.00003043892456     0.00001016494646
    4     0.00000515656680     0.00000501720769     0.00000190602246
    5     0.00000604108095     0.00000624397654     0.00000315117494
    6     0.00010021204997     0.00014817793036     0.00007113830509
    7     0.00047080085659     0.00066913882177     0.00042469668102
    8     0.00040256498479     0.00172552007901     0.00040160986121
    9     0.00570577267735     0.01428012594701     0.00261354558665
   10     0.01522456028404     0.01501010002445     0.01284815717162
   11     0.00351922382762     0.00296725276270     0.00223300423553
   12     0.00034174188565     0.00041250727664     0.00041805304551
   13     0.06637396690891     0.06576185881087     0.07157314183420
   14     0.94442449016109     0.94090706552252     0.94564245819415
   15     0.00001343239335     0.00001445565143     0.00001128579717
   16     0.00010751863806     0.00013723229256     0.00009981730055
   17     0.00119181939855     0.00598558621570     0.00066792614255
   18     0.00003162960401     0.00011093046607     0.00003883896087
   19     0.00001611629409     0.00001357957152     0.00000836855775
   20     0.00037013898348     0.00047870843143     0.00020628104141
   21     0.00000000000000     0.03890926446182     0.04145966355295
   22     0.03890926446182     0.00000000000000     0.04186278104923
   23     0.04145966355295     0.04186278104923     0.00000000000000



  Atomic Valences: 

 #  #
 Irrep: 1
      1:  4.1650214
      2:  5.0564482
      3:  5.0851056
      4:  1.8433671
      5:  1.8332872
      6:  4.9364114
      7:  4.6392857
      8:  4.4358035
      9:  4.4874642
     10:  4.8387713
     11:  4.4794723
     12:  4.7310669
     13:  3.1640855
     14:  4.2556514
     15:  2.8818008
     16:  2.9316417
     17:  1.1081623
     18:  1.1002882
     19:  1.1461352
     20:  1.1066501
     21:  1.1187540
     22:  1.1295385
     23:  1.1206884


    Psi4 stopped on: Tuesday, 22 June 2021 07:26AM
    Psi4 wall time for execution: 0:01:28.60

*** Psi4 exiting successfully. Buy a developer a beer!
