
    -----------------------------------------------------------------------
          Psi4: An Open-Source Ab Initio Electronic Structure Package
                               Psi4 1.3.2 release

                         Git: Rev {HEAD} ecbda83 


    R. M. Parrish, L. A. Burns, D. G. A. Smith, A. C. Simmonett,
    A. E. DePrince III, E. G. Hohenstein, U. Bozkaya, A. Yu. Sokolov,
    R. Di Remigio, R. M. Richard, J. F. Gonthier, A. M. James,
    H. R. McAlexander, A. Kumar, M. Saitow, X. Wang, B. P. Pritchard,
    P. Verma, H. F. Schaefer III, K. Patkowski, R. A. King, E. F. Valeev,
    F. A. Evangelista, J. M. Turney, T. D. Crawford, and C. D. Sherrill,
    J. Chem. Theory Comput. 13(7) pp 3185--3197 (2017).
    (doi: 10.1021/acs.jctc.7b00174)


                         Additional Contributions by
    P. Kraus, H. Kruse, M. H. Lechner, M. C. Schieber, R. A. Shaw,
    A. Alenaizan, R. Galvelis, Z. L. Glick, S. Lehtola, and J. P. Misiewicz

    -----------------------------------------------------------------------


    Psi4 started on: Tuesday, 22 June 2021 04:30AM

    Process ID: 23638
    Host:       cpu-spot-dy-c5n2xlarge-1
    PSIDATADIR: /fsx/users/francis/anaconda3/envs/poltype-dev/share/psi4
    Memory:     500.0 MiB
    Threads:    1
    
  ==> Input File <==

--------------------------------------------------------------------------
molecule { 
0 1
 N   -1.063727   -1.475206    0.257177
 C   -2.380318   -1.133677    0.422272
 C   -2.706661    0.394382    0.341842
 F   -3.699311    0.559303   -0.598614
 F   -3.207136    0.772792    1.567311
 C   -1.527868    1.364451   -0.018843
 C   -0.174584    0.778002   -0.154982
 C    0.931748    1.605556   -0.446250
 C    2.223057    1.073573   -0.559739
 C    2.441897   -0.323216   -0.405151
 C    1.330123   -1.149611   -0.126417
 C    0.033538   -0.620346   -0.004742
 S    4.005880   -1.167347   -0.488767
 C    5.299767    0.092571   -0.669384
 O   -3.221442   -1.995785    0.632348
 O   -1.730661    2.566822   -0.159222
 H    3.042910    1.763808   -0.748986
 H    0.756809    2.675054   -0.569073
 H   -0.915643   -2.472262    0.333188
 H    1.480350   -2.222332    0.006036
 H    5.565533    0.479689    0.319009
 H    6.182231   -0.384793   -1.107245
 H    4.971536    0.896515   -1.332732
}
set optking { 
  frozen_dihedral = ("
    11 10 13 14
    9 10 13 14
    21 14 13 10
  ")
}
set {
  geom_maxiter 400
  g_convergence GAU_LOOSE
  dynamic_level 1
}
memory 16GB
set_num_threads(8)
psi4_io.set_default_path("/scratch/Psi4-ligand")
for _ in range(1):
  try:
    set opt_coordinates both
    optimize('wb97x-d/6-31+G*')
    break
  except OptimizationConvergenceError:
    break
  else:
    try:
      set opt_coordinates cartesian
      optimize('wb97x-d/6-31+G*')
      break
    except OptimizationConvergenceError:
      pass
clean()
--------------------------------------------------------------------------

  Memory set to  14.901 GiB by Python driver.
  Threads set to 8 by Python driver.
gradient() will perform analytic gradient computation.

*** tstart() called on cpu-spot-dy-c5n2xlarge-1
*** at Tue Jun 22 04:30:54 2021

   => Loading Basis Set <=

    Name: 6-31+G*
    Role: ORBITAL
    Keyword: BASIS
    atoms 1             entry N          line   138 file /fsx/users/francis/anaconda3/envs/poltype-dev/share/psi4/basis/6-31pgs.gbs 
    atoms 2-3, 6-12, 14 entry C          line   119 file /fsx/users/francis/anaconda3/envs/poltype-dev/share/psi4/basis/6-31pgs.gbs 
    atoms 4-5           entry F          line   176 file /fsx/users/francis/anaconda3/envs/poltype-dev/share/psi4/basis/6-31pgs.gbs 
    atoms 13            entry S          line   344 file /fsx/users/francis/anaconda3/envs/poltype-dev/share/psi4/basis/6-31pgs.gbs 
    atoms 15-16         entry O          line   157 file /fsx/users/francis/anaconda3/envs/poltype-dev/share/psi4/basis/6-31pgs.gbs 
    atoms 17-23         entry H          line    46 file /fsx/users/francis/anaconda3/envs/poltype-dev/share/psi4/basis/6-31pgs.gbs 


         ---------------------------------------------------------
                                   SCF
               by Justin Turney, Rob Parrish, Andy Simmonett
                          and Daniel G. A. Smith
                              RKS Reference
                        8 Threads,  15258 MiB Core
         ---------------------------------------------------------

  ==> Geometry <==

    Molecular point group: c1
    Full point group: C1

    Geometry (in Angstrom), charge = 0, multiplicity = 1:

       Center              X                  Y                   Z               Mass       
    ------------   -----------------  -----------------  -----------------  -----------------
         N           -1.021170221310    -1.484189344632     0.292709993419    14.003074004430
         C           -2.337761221310    -1.142660344632     0.457804993419    12.000000000000
         C           -2.664104221310     0.385398655368     0.377374993419    12.000000000000
         F           -3.656754221310     0.550319655368    -0.563081006581    18.998403162730
         F           -3.164579221310     0.763808655368     1.602843993419    18.998403162730
         C           -1.485311221310     1.355467655368     0.016689993419    12.000000000000
         C           -0.132027221310     0.769018655368    -0.119449006581    12.000000000000
         C            0.974304778690     1.596572655368    -0.410717006581    12.000000000000
         C            2.265613778690     1.064589655368    -0.524206006581    12.000000000000
         C            2.484453778690    -0.332199344632    -0.369618006581    12.000000000000
         C            1.372679778690    -1.158594344632    -0.090884006581    12.000000000000
         C            0.076094778690    -0.629329344632     0.030790993419    12.000000000000
         S            4.048436778690    -1.176330344632    -0.453234006581    31.972071174400
         C            5.342323778690     0.083587655368    -0.633851006581    12.000000000000
         O           -3.178885221310    -2.004768344632     0.667880993419    15.994914619570
         O           -1.688104221310     2.557838655368    -0.123689006581    15.994914619570
         H            3.085466778690     1.754824655368    -0.713453006581     1.007825032230
         H            0.799365778690     2.666070655368    -0.533540006581     1.007825032230
         H           -0.873086221310    -2.481245344632     0.368720993419     1.007825032230
         H            1.522906778690    -2.231315344632     0.041568993419     1.007825032230
         H            5.608089778690     0.470705655368     0.354541993419     1.007825032230
         H            6.224787778690    -0.393776344632    -1.071712006581     1.007825032230
         H            5.014092778690     0.887531655368    -1.297199006581     1.007825032230

  Running in c1 symmetry.

  Rotational constants: A =      0.03852  B =      0.00807  C =      0.00695 [cm^-1]
  Rotational constants: A =   1154.74342  B =    242.03654  C =    208.29267 [MHz]
  Nuclear repulsion = 1173.692225161256147

  Charge       = 0
  Multiplicity = 1
  Electrons    = 124
  Nalpha       = 62
  Nbeta        = 62

  ==> Algorithm <==

  SCF Algorithm Type is DF.
  DIIS enabled.
  MOM disabled.
  Fractional occupation disabled.
  Guess Type is SAD.
  Energy threshold   = 1.00e-08
  Density threshold  = 1.00e-08
  Integral threshold = 0.00e+00

  ==> Primary Basis <==

  Basis Set: 6-31+G*
    Blend: 6-31+G*
    Number of shells: 144
    Number of basis function: 322
    Number of Cartesian functions: 322
    Spherical Harmonics?: false
    Max angular momentum: 2

  ==> DFT Potential <==

   => Composite Functional: WB97X-D <= 

    wB97X-D Hyb-GGA Exchange-Correlation Functional

    J.-D. Chai and M. Head-Gordon, Phys. Chem. Chem. Phys. 10, 6615 (2008)

    Deriv               =              1
    GGA                 =           TRUE
    Meta                =          FALSE

    Exchange Hybrid     =           TRUE
    MP2 Hybrid          =          FALSE

   => Exchange-Correlation Functionals <=

    1.0000   wB97D range-separated functional

   => Exact (HF) Exchange <=

    0.7780            HF,LR [omega = 0.2000]
    0.2220               HF 

   => Molecular Quadrature <=

    Radial Scheme          =       TREUTLER
    Pruning Scheme         =           FLAT
    Nuclear Scheme         =       TREUTLER

    BS radius alpha        =              1
    Pruning alpha          =              1
    Radial Points          =             75
    Spherical Points       =            302
    Total Points           =         520856
    Total Blocks           =           3878
    Max Points             =            256
    Max Functions          =            279

   => WB97X-D: Empirical Dispersion <=

    Chai and Head-Gordon Dispersion Correction
    Chai, J.-D.; Head-Gordon, M. (2010), J. Chem. Phys., 132: 6615-6620

        s6 =       1.000000

   => Loading Basis Set <=

    Name: (6-31+G* AUX)
    Role: JKFIT
    Keyword: DF_BASIS_SCF
    atoms 1             entry N          line   252 file /fsx/users/francis/anaconda3/envs/poltype-dev/share/psi4/basis/heavy-aug-cc-pvdz-jkfit.gbs 
    atoms 2-3, 6-12, 14 entry C          line   194 file /fsx/users/francis/anaconda3/envs/poltype-dev/share/psi4/basis/heavy-aug-cc-pvdz-jkfit.gbs 
    atoms 4-5           entry F          line   368 file /fsx/users/francis/anaconda3/envs/poltype-dev/share/psi4/basis/heavy-aug-cc-pvdz-jkfit.gbs 
    atoms 13            entry S          line   730 file /fsx/users/francis/anaconda3/envs/poltype-dev/share/psi4/basis/heavy-aug-cc-pvdz-jkfit.gbs 
    atoms 15-16         entry O          line   310 file /fsx/users/francis/anaconda3/envs/poltype-dev/share/psi4/basis/heavy-aug-cc-pvdz-jkfit.gbs 
    atoms 17-23         entry H          line   116 file /fsx/users/francis/anaconda3/envs/poltype-dev/share/psi4/basis/heavy-aug-cc-pvdz-jkfit.gbs 

  ==> Pre-Iterations <==

   -------------------------------------------------------
    Irrep   Nso     Nmo     Nalpha   Nbeta   Ndocc  Nsocc
   -------------------------------------------------------
     A        322     322       0       0       0       0
   -------------------------------------------------------
    Total     322     322      62      62      62       0
   -------------------------------------------------------

  ==> Integral Setup <==

  ==> DiskDFJK: Density-Fitted J/K Matrices <==

    J tasked:                  Yes
    K tasked:                  Yes
    wK tasked:                 Yes
    Omega:               2.000E-01
    OpenMP threads:              8
    Integrals threads:           8
    Memory [MiB]:             8461
    Algorithm:                Core
    Integral Cache:           NONE
    Schwarz Cutoff:          1E-12
    Fitting Condition:       1E-10

   => Auxiliary Basis Set <=

  Basis Set: (6-31+G* AUX)
    Blend: HEAVY-AUG-CC-PVDZ-JKFIT
    Number of shells: 523
    Number of basis function: 1840
    Number of Cartesian functions: 1840
    Spherical Harmonics?: false
    Max angular momentum: 3

  Cached 100.0% of DFT collocation blocks in 2.913 [GiB].

  Minimum eigenvalue in the overlap matrix is 5.0388207300E-07.
  Using Symmetric Orthogonalization.

  SCF Guess: Superposition of Atomic Densities via on-the-fly atomic UHF.

  ==> Iterations <==

                           Total Energy        Delta E     RMS |[F,P]|

   @DF-RKS iter SAD: -1187.20295432301691   -1.18720e+03   0.00000e+00 
   @DF-RKS iter   1: -1187.53575161977460   -3.32797e-01   3.40260e-03 DIIS
   @DF-RKS iter   2: -1187.54588808605422   -1.01365e-02   3.70836e-03 DIIS
   @DF-RKS iter   3: -1188.08622383753618   -5.40336e-01   7.82886e-04 DIIS
   @DF-RKS iter   4: -1188.11036490547554   -2.41411e-02   2.68019e-04 DIIS
   @DF-RKS iter   5: -1188.11390365282182   -3.53875e-03   7.22957e-05 DIIS
   @DF-RKS iter   6: -1188.11430446252507   -4.00810e-04   2.37459e-05 DIIS
   @DF-RKS iter   7: -1188.11436530638912   -6.08439e-05   1.02869e-05 DIIS
   @DF-RKS iter   8: -1188.11438176867887   -1.64623e-05   3.92125e-06 DIIS
   @DF-RKS iter   9: -1188.11438460307545   -2.83440e-06   2.14812e-06 DIIS
   @DF-RKS iter  10: -1188.11438495194398   -3.48869e-07   7.22525e-07 DIIS
   @DF-RKS iter  11: -1188.11438500206418   -5.01202e-08   3.25136e-07 DIIS
   @DF-RKS iter  12: -1188.11438501239536   -1.03312e-08   1.49507e-07 DIIS
   @DF-RKS iter  13: -1188.11438501493421   -2.53885e-09   5.75354e-08 DIIS
   @DF-RKS iter  14: -1188.11438501522889   -2.94676e-10   2.45361e-08 DIIS
   @DF-RKS iter  15: -1188.11438501528824   -5.93445e-11   1.18172e-08 DIIS
   @DF-RKS iter  16: -1188.11438501529733   -9.09495e-12   6.32902e-09 DIIS
  Energy and wave function converged.


  ==> Post-Iterations <==

    Orbital Energies [Eh]
    ---------------------

    Doubly Occupied:                                                      

       1A    -89.086008     2A    -24.874124     3A    -24.871708  
       4A    -19.304740     5A    -19.293301     6A    -14.542207  
       7A    -10.510094     8A    -10.458056     9A    -10.435103  
      10A    -10.410981    11A    -10.394231    12A    -10.358913  
      13A    -10.355331    14A    -10.352685    15A    -10.352535  
      16A    -10.347359    17A     -8.103335    18A     -6.054106  
      19A     -6.049502    20A     -6.043493    21A     -1.381269  
      22A     -1.324873    23A     -1.188507    24A     -1.174423  
      25A     -1.091549    26A     -0.999123    27A     -0.940190  
      28A     -0.903826    29A     -0.885853    30A     -0.869301  
      31A     -0.798080    32A     -0.763342    33A     -0.750257  
      34A     -0.744129    35A     -0.693112    36A     -0.678254  
      37A     -0.665501    38A     -0.643995    39A     -0.627967  
      40A     -0.589323    41A     -0.583616    42A     -0.564416  
      43A     -0.561729    44A     -0.555831    45A     -0.554119  
      46A     -0.551200    47A     -0.548576    48A     -0.535242  
      49A     -0.521878    50A     -0.515954    51A     -0.506537  
      52A     -0.498718    53A     -0.490611    54A     -0.485805  
      55A     -0.474547    56A     -0.439003    57A     -0.429655  
      58A     -0.395709    59A     -0.394872    60A     -0.367308  
      61A     -0.339573    62A     -0.318137  

    Virtual:                                                              

      63A     -0.046344    64A      0.011483    65A      0.039278  
      66A      0.047537    67A      0.052034    68A      0.065068  
      69A      0.066760    70A      0.074862    71A      0.080789  
      72A      0.086170    73A      0.092494    74A      0.095365  
      75A      0.104932    76A      0.111284    77A      0.115008  
      78A      0.117215    79A      0.118547    80A      0.132460  
      81A      0.137280    82A      0.137682    83A      0.143827  
      84A      0.149342    85A      0.154630    86A      0.162357  
      87A      0.169927    88A      0.173037    89A      0.178278  
      90A      0.180306    91A      0.185275    92A      0.189097  
      93A      0.192008    94A      0.197123    95A      0.202869  
      96A      0.206564    97A      0.210596    98A      0.217494  
      99A      0.222547   100A      0.225827   101A      0.233806  
     102A      0.236186   103A      0.241951   104A      0.243310  
     105A      0.247693   106A      0.249633   107A      0.255715  
     108A      0.261122   109A      0.264316   110A      0.272130  
     111A      0.276604   112A      0.283694   113A      0.287384  
     114A      0.288410   115A      0.299232   116A      0.300967  
     117A      0.311912   118A      0.312578   119A      0.321153  
     120A      0.327440   121A      0.330249   122A      0.331457  
     123A      0.338319   124A      0.342581   125A      0.354520  
     126A      0.358077   127A      0.362342   128A      0.375339  
     129A      0.379824   130A      0.382998   131A      0.391974  
     132A      0.394501   133A      0.397355   134A      0.402016  
     135A      0.411533   136A      0.418237   137A      0.429571  
     138A      0.442352   139A      0.444080   140A      0.447413  
     141A      0.458968   142A      0.471502   143A      0.477258  
     144A      0.482265   145A      0.503148   146A      0.510326  
     147A      0.523383   148A      0.529825   149A      0.535873  
     150A      0.555474   151A      0.574191   152A      0.579961  
     153A      0.585090   154A      0.594513   155A      0.606095  
     156A      0.626503   157A      0.655673   158A      0.662993  
     159A      0.673143   160A      0.695611   161A      0.728521  
     162A      0.741721   163A      0.754329   164A      0.759741  
     165A      0.769101   166A      0.771792   167A      0.788804  
     168A      0.797572   169A      0.803631   170A      0.814885  
     171A      0.822113   172A      0.837707   173A      0.857855  
     174A      0.877121   175A      0.880158   176A      0.885647  
     177A      0.897407   178A      0.915765   179A      0.927861  
     180A      0.931695   181A      0.963722   182A      0.971321  
     183A      0.982722   184A      0.987700   185A      1.011005  
     186A      1.021021   187A      1.047901   188A      1.056698  
     189A      1.072481   190A      1.079286   191A      1.084071  
     192A      1.096605   193A      1.116686   194A      1.150083  
     195A      1.154651   196A      1.170995   197A      1.201703  
     198A      1.206027   199A      1.208274   200A      1.225730  
     201A      1.229660   202A      1.236509   203A      1.267999  
     204A      1.282904   205A      1.286692   206A      1.321070  
     207A      1.322999   208A      1.335949   209A      1.342586  
     210A      1.387792   211A      1.401666   212A      1.407189  
     213A      1.414766   214A      1.419816   215A      1.438901  
     216A      1.447427   217A      1.450230   218A      1.464837  
     219A      1.470198   220A      1.484703   221A      1.505388  
     222A      1.514191   223A      1.525814   224A      1.532674  
     225A      1.550658   226A      1.591477   227A      1.619965  
     228A      1.651140   229A      1.663536   230A      1.671984  
     231A      1.709133   232A      1.748852   233A      1.754126  
     234A      1.758322   235A      1.760170   236A      1.763372  
     237A      1.771698   238A      1.781926   239A      1.788571  
     240A      1.819320   241A      1.838909   242A      1.864079  
     243A      1.874129   244A      1.894098   245A      1.899699  
     246A      1.910847   247A      1.919753   248A      1.945753  
     249A      1.962989   250A      1.967873   251A      1.971981  
     252A      2.004689   253A      2.039191   254A      2.048033  
     255A      2.055246   256A      2.061159   257A      2.078074  
     258A      2.091275   259A      2.099097   260A      2.112786  
     261A      2.145364   262A      2.152636   263A      2.166086  
     264A      2.199798   265A      2.206098   266A      2.209802  
     267A      2.244591   268A      2.255983   269A      2.260671  
     270A      2.276836   271A      2.303075   272A      2.306742  
     273A      2.315246   274A      2.343770   275A      2.349090  
     276A      2.367189   277A      2.382624   278A      2.403900  
     279A      2.461445   280A      2.466479   281A      2.510360  
     282A      2.513449   283A      2.568432   284A      2.625850  
     285A      2.657028   286A      2.677016   287A      2.704268  
     288A      2.729801   289A      2.737386   290A      2.768510  
     291A      2.777980   292A      2.827620   293A      2.828265  
     294A      2.850264   295A      2.898297   296A      2.946006  
     297A      2.959129   298A      3.029561   299A      3.115286  
     300A      3.154602   301A      3.214753   302A      3.238642  
     303A      3.337332   304A      3.378778   305A      3.462168  
     306A      3.483928   307A      4.034787   308A      4.279338  
     309A      4.312489   310A      4.332400   311A      4.360769  
     312A      4.376868   313A      4.415700   314A      4.469244  
     315A      4.486050   316A      4.521078   317A      4.580264  
     318A      4.778676   319A      4.834566   320A      5.103448  
     321A      5.708763   322A      7.126161  

    Final Occupation by Irrep:
              A 
    DOCC [    62 ]

  @DF-RKS Final Energy: -1188.11438501529733

   => Energetics <=

    Nuclear Repulsion Energy =           1173.6922251612561467
    One-Electron Energy =               -3961.4648621492128768
    Two-Electron Energy =                1689.1103149196030699
    DFT Exchange-Correlation Energy =     -89.4386158661673960
    Empirical Dispersion Energy =          -0.0134470807765094
    VV10 Nonlocal Energy =                  0.0000000000000000
    Total Energy =                      -1188.1143850152973300

Computation Completed


Properties will be evaluated at   0.000000,   0.000000,   0.000000 [a0]

Properties computed using the SCF density matrix

  Nuclear Dipole Moment: [e a0]
     X:    26.5660      Y:    -0.6330      Z:    -3.6639

  Electronic Dipole Moment: [e a0]
     X:   -23.2740      Y:     0.2745      Z:     3.2656

  Dipole Moment: [e a0]
     X:     3.2920      Y:    -0.3585      Z:    -0.3983     Total:     3.3353

  Dipole Moment: [D]
     X:     8.3673      Y:    -0.9113      Z:    -1.0123     Total:     8.4775


*** tstop() called on cpu-spot-dy-c5n2xlarge-1 at Tue Jun 22 04:32:10 2021
Module time:
	user time   =     569.74 seconds =       9.50 minutes
	system time =      10.38 seconds =       0.17 minutes
	total time  =         76 seconds =       1.27 minutes
Total time:
	user time   =     569.74 seconds =       9.50 minutes
	system time =      10.38 seconds =       0.17 minutes
	total time  =         76 seconds =       1.27 minutes

*** tstart() called on cpu-spot-dy-c5n2xlarge-1
*** at Tue Jun 22 04:32:10 2021


         ------------------------------------------------------------
                                   SCF GRAD                          
                          Rob Parrish, Justin Turney,                
                       Andy Simmonett, and Alex Sokolov              
         ------------------------------------------------------------

  ==> Geometry <==

    Molecular point group: c1
    Full point group: C1

    Geometry (in Angstrom), charge = 0, multiplicity = 1:

       Center              X                  Y                   Z               Mass       
    ------------   -----------------  -----------------  -----------------  -----------------
         N           -1.021170221310    -1.484189344632     0.292709993419    14.003074004430
         C           -2.337761221310    -1.142660344632     0.457804993419    12.000000000000
         C           -2.664104221310     0.385398655368     0.377374993419    12.000000000000
         F           -3.656754221310     0.550319655368    -0.563081006581    18.998403162730
         F           -3.164579221310     0.763808655368     1.602843993419    18.998403162730
         C           -1.485311221310     1.355467655368     0.016689993419    12.000000000000
         C           -0.132027221310     0.769018655368    -0.119449006581    12.000000000000
         C            0.974304778690     1.596572655368    -0.410717006581    12.000000000000
         C            2.265613778690     1.064589655368    -0.524206006581    12.000000000000
         C            2.484453778690    -0.332199344632    -0.369618006581    12.000000000000
         C            1.372679778690    -1.158594344632    -0.090884006581    12.000000000000
         C            0.076094778690    -0.629329344632     0.030790993419    12.000000000000
         S            4.048436778690    -1.176330344632    -0.453234006581    31.972071174400
         C            5.342323778690     0.083587655368    -0.633851006581    12.000000000000
         O           -3.178885221310    -2.004768344632     0.667880993419    15.994914619570
         O           -1.688104221310     2.557838655368    -0.123689006581    15.994914619570
         H            3.085466778690     1.754824655368    -0.713453006581     1.007825032230
         H            0.799365778690     2.666070655368    -0.533540006581     1.007825032230
         H           -0.873086221310    -2.481245344632     0.368720993419     1.007825032230
         H            1.522906778690    -2.231315344632     0.041568993419     1.007825032230
         H            5.608089778690     0.470705655368     0.354541993419     1.007825032230
         H            6.224787778690    -0.393776344632    -1.071712006581     1.007825032230
         H            5.014092778690     0.887531655368    -1.297199006581     1.007825032230

  Nuclear repulsion = 1173.692225161256147

  ==> Basis Set <==

  Basis Set: 6-31+G*
    Blend: 6-31+G*
    Number of shells: 144
    Number of basis function: 322
    Number of Cartesian functions: 322
    Spherical Harmonics?: false
    Max angular momentum: 2

  ==> DFJKGrad: Density-Fitted SCF Gradients <==

    Gradient:                    1
    J tasked:                  Yes
    K tasked:                  Yes
    wK tasked:                 Yes
    Omega:               2.000E-01
    OpenMP threads:              8
    Integrals threads:           8
    Memory [MiB]:            11444
    Schwarz Cutoff:          0E+00
    Fitting Condition:       1E-10

   => Auxiliary Basis Set <=

  Basis Set: (6-31+G* AUX)
    Blend: HEAVY-AUG-CC-PVDZ-JKFIT
    Number of shells: 523
    Number of basis function: 1840
    Number of Cartesian functions: 1840
    Spherical Harmonics?: false
    Max angular momentum: 3

  ==> DFT Potential <==

   => Composite Functional: WB97X-D <= 

    wB97X-D Hyb-GGA Exchange-Correlation Functional

    J.-D. Chai and M. Head-Gordon, Phys. Chem. Chem. Phys. 10, 6615 (2008)

    Deriv               =              1
    GGA                 =           TRUE
    Meta                =          FALSE

    Exchange Hybrid     =           TRUE
    MP2 Hybrid          =          FALSE

   => Exchange-Correlation Functionals <=

    1.0000   wB97D range-separated functional

   => Exact (HF) Exchange <=

    0.7780            HF,LR [omega = 0.2000]
    0.2220               HF 

   => Molecular Quadrature <=

    Radial Scheme          =       TREUTLER
    Pruning Scheme         =           FLAT
    Nuclear Scheme         =       TREUTLER

    BS radius alpha        =              1
    Pruning alpha          =              1
    Radial Points          =             75
    Spherical Points       =            302
    Total Points           =         520856
    Total Blocks           =           3878
    Max Points             =            256
    Max Functions          =            279


  -Total Gradient:
     Atom            X                  Y                   Z
    ------   -----------------  -----------------  -----------------
       1       -0.009462699661    -0.010905286877     0.001904392320
       2        0.007831556510     0.011385706263    -0.002949282225
       3        0.013230781824    -0.003927139608     0.001154220391
       4       -0.013784716799     0.002437543340    -0.014165844785
       5       -0.006190158398     0.004692880411     0.015373019179
       6       -0.008433291241    -0.021641898659     0.003345080509
       7       -0.000043097264     0.007505371860     0.000576578582
       8       -0.003896000476     0.013507127536    -0.002670296860
       9        0.005824876101     0.003509834002    -0.001519015249
      10        0.009087834194    -0.010642770813    -0.004635933168
      11        0.004307926051    -0.002433970250     0.000390417710
      12       -0.001950535344    -0.005731011527     0.002261897654
      13        0.005584317819     0.003458752614     0.003541431813
      14        0.005045576410    -0.004471197576    -0.004603567651
      15       -0.008546457593    -0.021589741477     0.003609700257
      16        0.004451631427     0.028960229011    -0.004481787147
      17        0.000743892220     0.003580929856     0.000086410965
      18       -0.000935305315     0.003830225349    -0.000818779231
      19       -0.004177787879     0.001703047527     0.000343502681
      20        0.000385078072    -0.002445105619     0.000477217077
      21        0.000082220912    -0.003269678892     0.002818142327
      22        0.003897072722     0.002190748720    -0.000034104882
      23       -0.002363746181    -0.000066151589    -0.000121327643


*** tstop() called on cpu-spot-dy-c5n2xlarge-1 at Tue Jun 22 04:32:34 2021
Module time:
	user time   =     149.44 seconds =       2.49 minutes
	system time =       3.85 seconds =       0.06 minutes
	total time  =         24 seconds =       0.40 minutes
Total time:
	user time   =     719.19 seconds =      11.99 minutes
	system time =      14.23 seconds =       0.24 minutes
	total time  =        100 seconds =       1.67 minutes

			-----------------------------------------
			 OPTKING 2.0: for geometry optimizations 
			  - R.A. King,  Bethel University        
			-----------------------------------------
	At level 1: Red. Int., RFO, no backsteps, dynamic trust

	Internal coordinates to be generated automatically.
	Detected frag 1 with atoms:  1 2 3 4 5 6 7 8 9 10 11 12 13 14 15 16 17 18 19 20
	 21 22 23
	---Fragment 1 Bond Connectivity---
	 1 : 2 12 19
	 2 : 1 3 15
	 3 : 2 4 5 6
	 4 : 3
	 5 : 3
	 6 : 3 7 16
	 7 : 6 8 12
	 8 : 7 9 18
	 9 : 8 10 17
	 10 : 9 11 13
	 11 : 10 12 20
	 12 : 1 7 11
	 13 : 10 14
	 14 : 13 21 22 23
	 15 : 2
	 16 : 6
	 17 : 9
	 18 : 8
	 19 : 1
	 20 : 11
	 21 : 14
	 22 : 14
	 23 : 14

	Assuming in current code that numbering for constraints corresponds to unified fragment.
	Frozen dihedral atom list: 
	    11    10    13    14
	     9    10    13    14
	    21    14    13    10
	---Fragment 1 Geometry and Gradient---
	 N          -1.9297320457       -2.8047113797        0.5531417217
	 C          -4.4177284550       -2.1593151058        0.8651260564
	 C          -5.0344273480        0.7282979078        0.7131353842
	 F          -6.9102639864        1.0399534301       -1.0640688889
	 F          -5.9801880306        1.4433891709        3.0289361694
	 C          -2.8068314193        2.5614626406        0.0315395166
	 C          -0.2494952894        1.4532346440       -0.2257259084
	 C           1.8411691944        3.0170850580       -0.7761426575
	 C           4.2813895478        2.0117828846       -0.9906057858
	 C           4.6949372131       -0.6277657804       -0.6984768035
	 C           2.5939888397       -2.1894260019       -0.1717458816
	 C           0.1437982913       -1.1892601041        0.0581865447
	 S           7.6504367480       -2.2229421844       -0.8564881432
	 C          10.0955288152        0.1579577761       -1.1978048068
	 O          -6.0072224525       -3.7884631163        1.2621121620
	 O          -3.1900546495        4.8336145318       -0.2337383472
	 H           5.8306871809        3.3161379968       -1.3482307858
	 H           1.5105823958        5.0381433698       -1.0082444894
	 H          -1.6498938422       -4.6888741514        0.6967816943
	 H           2.8778767263       -4.2165749009        0.0785540129
	 H          10.5977537687        0.8895047743        0.6699872675
	 H          11.7631440908       -0.7441294460       -2.0252421778
	 H           9.4752621194        1.6771917563       -2.4513508527
	            -0.0094626997       -0.0109052869        0.0019043923
	             0.0078315565        0.0113857063       -0.0029492822
	             0.0132307818       -0.0039271396        0.0011542204
	            -0.0137847168        0.0024375433       -0.0141658448
	            -0.0061901584        0.0046928804        0.0153730192
	            -0.0084332912       -0.0216418987        0.0033450805
	            -0.0000430973        0.0075053719        0.0005765786
	            -0.0038960005        0.0135071275       -0.0026702969
	             0.0058248761        0.0035098340       -0.0015190152
	             0.0090878342       -0.0106427708       -0.0046359332
	             0.0043079261       -0.0024339702        0.0003904177
	            -0.0019505353       -0.0057310115        0.0022618977
	             0.0055843178        0.0034587526        0.0035414318
	             0.0050455764       -0.0044711976       -0.0046035677
	            -0.0085464576       -0.0215897415        0.0036097003
	             0.0044516314        0.0289602290       -0.0044817871
	             0.0007438922        0.0035809299        0.0000864110
	            -0.0009353053        0.0038302253       -0.0008187792
	            -0.0041777879        0.0017030475        0.0003435027
	             0.0003850781       -0.0024451056        0.0004772171
	             0.0000822209       -0.0032696789        0.0028181423
	             0.0038970727        0.0021907487       -0.0000341049
	            -0.0023637462       -0.0000661516       -0.0001213276

	Previous optimization step data not found.  Starting new optimization.

	---Fragment 1 Intrafragment Coordinates---
	 - Coordinate -           - BOHR/RAD -       - ANG/DEG -
	 R(1,2)           =         2.589208	       1.370150
	 R(1,12)          =         2.674732	       1.415407
	 R(1,19)          =         1.910239	       1.010855
	 R(2,3)           =         2.956641	       1.564587
	 R(2,15)          =         2.310457	       1.222641
	 R(3,4)           =         2.602758	       1.377320
	 R(3,5)           =         2.601683	       1.376751
	 R(3,6)           =         2.964330	       1.568656
	 R(6,7)           =         2.798986	       1.481160
	 R(6,16)          =         2.319463	       1.227407
	 R(7,8)           =         2.668233	       1.411968
	 R(7,12)          =         2.686646	       1.421712
	 R(8,9)           =         2.647886	       1.401201
	 R(8,18)          =         2.061028	       1.090649
	 R(9,10)          =         2.687672	       1.422255
	 R(9,17)          =         2.056590	       1.088300
	 R(10,11)         =         2.670246	       1.413033
	 R(10,13)         =         3.362221	       1.779211
	 R(11,12)         =         2.656433	       1.405724
	 R(11,20)         =         2.062177	       1.091257
	 R(13,14)         =         3.429819	       1.814982
	 R(14,21)         =         2.067858	       1.094264
	 R(14,22)         =         2.068660	       1.094688
	 R(14,23)         =         2.064989	       1.092745
	 B(1,2,3)         =         2.023811	     115.955811
	 B(1,2,15)        =         2.101345	     120.398228
	 B(1,12,7)        =         2.094525	     120.007464
	 B(1,12,11)       =         2.098627	     120.242473
	 B(2,1,12)        =         2.235309	     128.073775
	 B(2,1,19)        =         1.957965	     112.183141
	 B(2,3,4)         =         1.877977	     107.600171
	 B(2,3,5)         =         1.873923	     107.367860
	 B(2,3,6)         =         2.047720	     117.325718
	 B(3,2,15)        =         2.157952	     123.641533
	 B(3,6,7)         =         2.052028	     117.572549
	 B(3,6,16)        =         2.103581	     120.526287
	 B(4,3,5)         =         1.889022	     108.233004
	 B(4,3,6)         =         1.886558	     108.091816
	 B(5,3,6)         =         1.883745	     107.930634
	 B(6,7,8)         =         2.097623	     120.184959
	 B(6,7,12)        =         2.110019	     120.895199
	 B(7,6,16)        =         2.127402	     121.891151
	 B(7,8,9)         =         2.113294	     121.082810
	 B(7,8,18)        =         2.062678	     118.182747
	 B(7,12,11)       =         2.090008	     119.748636
	 B(8,7,12)        =         2.075521	     118.918590
	 B(8,9,10)        =         2.101177	     120.388575
	 B(8,9,17)        =         2.057304	     117.874859
	 B(9,8,18)        =         2.107141	     120.730302
	 B(9,10,11)       =         2.065468	     118.342623
	 B(9,10,13)       =         2.209423	     126.590618
	 B(10,9,17)       =         2.124525	     121.726336
	 B(10,11,12)      =         2.120685	     121.506285
	 B(10,11,20)      =         2.083497	     119.375560
	 B(10,13,14)      =         1.877572	     107.576924
	 B(11,10,13)      =         2.008015	     115.050774
	 B(12,1,19)       =         2.089865	     119.740426
	 B(12,11,20)      =         2.078969	     119.116165
	 B(13,14,21)      =         1.905865	     109.198040
	 B(13,14,22)      =         1.887861	     108.166468
	 B(13,14,23)      =         1.935839	     110.915418
	 B(21,14,22)      =         1.896284	     108.649062
	 B(21,14,23)      =         1.940131	     111.161302
	 B(22,14,23)      =         1.896687	     108.672177
	 D(1,2,3,4)       =         2.204912	     126.332173
	 D(1,2,3,5)       =        -2.048374	    -117.363190
	 D(1,2,3,6)       =         0.074781	       4.284631
	 D(1,12,7,6)      =         0.018023	       1.032649
	 D(1,12,7,8)      =        -3.116476	    -178.560916
	 D(1,12,11,10)    =         3.126743	     179.149190
	 D(1,12,11,20)    =        -0.023866	      -1.367407
	 D(2,1,12,7)      =        -0.023676	      -1.356524
	 D(2,1,12,11)     =         3.125520	     179.079093
	 D(2,3,6,7)       =        -0.079490	      -4.554444
	 D(2,3,6,16)      =         3.081816	     176.575066
	 D(3,2,1,12)      =        -0.025243	      -1.446338
	 D(3,2,1,19)      =         3.126863	     179.156050
	 D(3,6,7,8)       =        -3.114725	    -178.460616
	 D(3,6,7,12)      =         0.034050	       1.950945
	 D(4,3,2,15)      =        -0.950026	     -54.432504
	 D(4,3,6,7)       =        -2.205187	    -126.347891
	 D(4,3,6,16)      =         0.956120	      54.781620
	 D(5,3,2,15)      =         1.079872	      61.872134
	 D(5,3,6,7)       =         2.038566	     116.801204
	 D(5,3,6,16)      =        -1.083313	     -62.069285
	 D(6,3,2,15)      =        -3.080158	    -176.480045
	 D(6,7,8,9)       =         3.125109	     179.055529
	 D(6,7,8,18)      =        -0.003654	      -0.209383
	 D(6,7,12,11)     =        -3.131135	    -179.400806
	 D(7,8,9,10)      =         0.018925	       1.084312
	 D(7,8,9,17)      =        -3.102710	    -177.772179
	 D(7,12,1,19)     =         3.106705	     178.001056
	 D(7,12,11,10)    =        -0.007266	      -0.416322
	 D(7,12,11,20)    =         3.125310	     179.067081
	 D(8,7,6,16)      =         0.006867	       0.393452
	 D(8,7,12,11)     =         0.017552	       1.005629
	 D(8,9,10,11)     =        -0.008017	      -0.459348
	 D(8,9,10,13)     =        -3.122865	    -178.926985
	 D(9,8,7,12)      =        -0.023526	      -1.347944
	 D(9,10,11,12)    =         0.002340	       0.134066
	 D(9,10,11,20)    =        -3.130214	    -179.348027
	*D(9,10,13,14)    =         0.081567	       4.673439
	 D(10,9,8,18)     =        -3.135824	    -179.669473
	*D(10,13,14,21)   =         1.463846	      83.872195
	 D(10,13,14,22)   =        -2.758549	    -158.053233
	 D(10,13,14,23)   =        -0.680108	     -38.967345
	 D(11,10,9,17)    =         3.112834	     178.352232
	*D(11,10,13,14)   =        -3.034043	    -173.837861
	 D(11,12,1,19)    =        -0.027285	      -1.563327
	 D(12,1,2,15)     =         3.129231	     179.291733
	 D(12,7,6,16)     =        -3.127543	    -179.194988
	 D(12,7,8,18)     =         3.130896	     179.387143
	 D(12,11,10,13)   =         3.120230	     178.775989
	 D(13,10,9,17)    =        -0.002014	      -0.115404
	 D(13,10,11,20)   =        -0.012324	      -0.706103
	 D(15,2,1,19)     =        -0.001848	      -0.105880
	 D(17,9,8,18)     =         0.025727	       1.474035

	Current energy   :     -1188.1143850153

	Generating empirical Hessian (Schlegel '84) for each fragment.
	Taking RFO optimization step.
	Going to follow RFO solution 1.
	Using RFO vector 1.
	Norm of target step-size    0.21094
	Projected energy change by RFO approximation:        -0.0122296698

	Back-transformation to cartesian coordinates...
	Could not converge backtransformation.
	Using first guess instead.

	Back-transformation to cartesian coordinates to adjust frozen coordinates...

	--- Internal Coordinate Step in ANG or DEG, aJ/ANG or AJ/DEG ---
	 ---------------------------------------------------------------------------
	   Coordinate                Previous        Force       Change         New 
	   ----------                --------       ------       ------       ------
	    1 R(1,2)          =      1.370150    -0.009165     1.038904     2.409054
	    2 R(1,12)         =      1.415407    -0.132457     1.098885     2.514292
	    3 R(1,19)         =      1.010855     0.018868     0.796079     1.806934
	    4 R(2,3)          =      1.564587    -0.095879     1.187380     2.751967
	    5 R(2,15)         =      1.222641    -0.179031     0.964557     2.187199
	    6 R(3,4)          =      1.377320    -0.164068     0.396040     1.773360
	    7 R(3,5)          =      1.376751    -0.142132     0.486597     1.863348
	    8 R(3,6)          =      1.568656    -0.092432     1.211422     2.780077
	    9 R(6,7)          =      1.481160    -0.079703     1.093529     2.574688
	   10 R(6,16)         =      1.227407    -0.232092     0.916825     2.144232
	   11 R(7,8)          =      1.411968    -0.107974     1.102589     2.514557
	   12 R(7,12)         =      1.421712    -0.118372     1.076355     2.498066
	   13 R(8,9)          =      1.401201    -0.140402     1.023502     2.424703
	   14 R(8,18)         =      1.090649    -0.033095     0.838824     1.929473
	   15 R(9,10)         =      1.422255    -0.144513     1.072864     2.495119
	   16 R(9,17)         =      1.088300    -0.023090     0.866672     1.954972
	   17 R(10,11)        =      1.413033    -0.109180     1.102188     2.515221
	   18 R(10,13)        =      1.779211    -0.095286     1.299435     3.078646
	   19 R(11,12)        =      1.405724    -0.140202     1.025791     2.431515
	   20 R(11,20)        =      1.091257    -0.020566     0.842399     1.933657
	   21 R(13,14)        =      1.814982    -0.007974     1.456545     3.271526
	   22 R(14,21)        =      1.094264    -0.011531     0.225138     1.319401
	   23 R(14,22)        =      1.094688    -0.017915     0.809948     1.904636
	   24 R(14,23)        =      1.092745    -0.006175     0.493774     1.586519
	   25 B(1,2,3)        =    115.955811    -0.000059    -0.110906   115.844904
	   26 B(1,2,15)       =    120.398228     0.000813     1.384658   121.782886
	   27 B(1,12,7)       =    120.007464     0.000214     1.122085   121.129550
	   28 B(1,12,11)      =    120.242473    -0.000399    -2.401766   117.840706
	   29 B(2,1,12)       =    128.073775    -0.000192    -1.728697   126.345077
	   30 B(2,1,19)       =    112.183141     0.000383     1.834528   114.017669
	   31 B(2,3,4)        =    107.600171    -0.000029     1.109465   108.709636
	   32 B(2,3,5)        =    107.367860    -0.000025    10.764715   118.132575
	   33 B(2,3,6)        =    117.325718     0.000073     1.635300   118.961018
	   34 B(3,2,15)       =    123.641533    -0.000754    -1.269473   122.372060
	   35 B(3,6,7)        =    117.572549    -0.000148    -1.703774   115.868776
	   36 B(3,6,16)       =    120.526287    -0.000743    -1.607990   118.918297
	   37 B(4,3,5)        =    108.233004    -0.000019   -29.334741    78.898263
	   38 B(4,3,6)        =    108.091816     0.000023     9.475489   117.567304
	   39 B(5,3,6)        =    107.930634    -0.000029     0.337245   108.267879
	   40 B(6,7,8)        =    120.184959    -0.000040    -1.232752   118.952207
	   41 B(6,7,12)       =    120.895199     0.000113     0.924779   121.819978
	   42 B(7,6,16)       =    121.891151     0.000891     3.321775   125.212926
	   43 B(7,8,9)        =    121.082810     0.000074    -0.859153   120.223656
	   44 B(7,8,18)       =    118.182747    -0.000016     0.494203   118.676950
	   45 B(7,12,11)      =    119.748636     0.000185     1.280490   121.029126
	   46 B(8,7,12)       =    118.918590    -0.000073     0.305356   119.223945
	   47 B(8,9,10)       =    120.388575    -0.000229    -0.234393   120.154182
	   48 B(8,9,17)       =    117.874859     0.000293     0.137838   118.012697
	   49 B(9,8,18)       =    120.730302    -0.000057     0.368832   121.099134
	   50 B(9,10,11)      =    118.342623     0.000442     1.894471   120.237094
	   51 B(9,10,13)      =    126.590618    -0.000517    -0.655305   125.935313
	   52 B(10,9,17)      =    121.726336    -0.000064     0.102125   121.828461
	   53 B(10,11,12)     =    121.506285    -0.000398    -2.378244   119.128041
	   54 B(10,11,20)     =    119.375560     0.000197     1.055410   120.430970
	   55 B(10,13,14)     =    107.576924    -0.001499    -4.450491   103.126433
	   56 B(11,10,13)     =    115.050774     0.000075    -1.239765   113.811009
	   57 B(12,1,19)      =    119.740426    -0.000191    -0.103421   119.637005
	   58 B(12,11,20)     =    119.116165     0.000201     1.324650   120.440815
	   59 B(13,14,21)     =    109.198040     0.000440    10.902242   120.100282
	   60 B(13,14,22)     =    108.166468    -0.000570    -5.265289   102.901179
	   61 B(13,14,23)     =    110.915418     0.000231     2.848169   113.763587
	   62 B(21,14,22)     =    108.649062     0.000086    -9.200916    99.448147
	   63 B(21,14,23)     =    111.161302    -0.000176   -15.893256    95.268046
	   64 B(22,14,23)     =    108.672177    -0.000029    17.082434   125.754611
	   65 D(1,2,3,4)      =    126.332173     0.000008    13.756124   140.088296
	   66 D(1,2,3,5)      =   -117.363190    -0.000003   -15.382931  -132.746121
	   67 D(1,2,3,6)      =      4.284631    -0.000005    -2.430219     1.854412
	   68 D(1,12,7,6)     =      1.032649    -0.000005    -0.147518     0.885131
	   69 D(1,12,7,8)     =   -178.560916    -0.000010    -1.277335  -179.838251
	   70 D(1,12,11,10)   =    179.149190     0.000000     0.161749   179.310939
	   71 D(1,12,11,20)   =     -1.367407     0.000007     0.527432    -0.839975
	   72 D(2,1,12,7)     =     -1.356524     0.000005     0.590468    -0.766057
	   73 D(2,1,12,11)    =    179.079093    -0.000000     0.437951   179.517044
	   74 D(2,3,6,7)      =     -4.554444     0.000005     2.831448    -1.722996
	   75 D(2,3,6,16)     =    176.575066    -0.000000     1.692135   178.267201
	   76 D(3,2,1,12)     =     -1.446338     0.000001     0.803670    -0.642668
	   77 D(3,2,1,19)     =    179.156050     0.000001     0.384589   179.540639
	   78 D(3,6,7,8)      =   -178.460616     0.000006    -0.447473  -178.908089
	   79 D(3,6,7,12)     =      1.950945     0.000000    -1.580510     0.370435
	   80 D(4,3,2,15)     =    -54.432504     0.000012    14.659188   -39.773316
	   81 D(4,3,6,7)      =   -126.347891    -0.000002   -10.002290  -136.350181
	   82 D(4,3,6,16)     =     54.781620    -0.000008   -11.141603    43.640017
	   83 D(5,3,2,15)     =     61.872134     0.000000   -14.479867    47.392267
	   84 D(5,3,6,7)      =    116.801204     0.000004    20.082385   136.883590
	   85 D(5,3,6,16)     =    -62.069285    -0.000002    18.943072   -43.126213
	   86 D(6,3,2,15)     =   -176.480045    -0.000001    -1.527155  -178.007200
	   87 D(6,7,8,9)      =    179.055529     0.000005     0.596116   179.651645
	   88 D(6,7,8,18)     =     -0.209383     0.000000    -0.322099    -0.531483
	   89 D(6,7,12,11)    =   -179.400806    -0.000000    -0.006197  -179.407003
	   90 D(7,8,9,10)     =      1.084312    -0.000006    -1.112674    -0.028362
	   91 D(7,8,9,17)     =   -177.772179    -0.000010    -1.485263  -179.257442
	   92 D(7,12,1,19)    =    178.001056     0.000005     1.040250   179.041306
	   93 D(7,12,11,10)   =     -0.416322    -0.000005     0.010063    -0.406260
	   94 D(7,12,11,20)   =    179.067081     0.000002     0.375746   179.442827
	   95 D(8,7,6,16)     =      0.393452     0.000007     0.708962     1.102413
	   96 D(8,7,12,11)    =      1.005629    -0.000006    -1.136014    -0.130386
	   97 D(8,9,10,11)    =     -0.459348    -0.000005    -0.058199    -0.517548
	   98 D(8,9,10,13)    =   -178.926985    -0.000003    -0.014078  -178.941062
	   99 D(9,8,7,12)     =     -1.347944     0.000011     1.702043     0.354098
	  100 D(9,10,11,12)   =      0.134066     0.000010     0.599514     0.733580
	  101 D(9,10,11,20)   =   -179.348027     0.000003     0.232504  -179.115523
	  102 *D(9,10,13,14)  =      4.673439     0.000000     0.000000     4.673439
	  103 D(10,9,8,18)    =   -179.669473    -0.000001    -0.171256  -179.840729
	  104 *D(10,13,14,21) =     83.872195     0.000000     0.000000    83.872195
	  105 D(10,13,14,22)  =   -158.053233     0.000005    -8.961467  -167.014700
	  106 D(10,13,14,23)  =    -38.967345    -0.000053    11.050508   -27.916836
	  107 D(11,10,9,17)   =    178.352232     0.000001     0.329163   178.681395
	  108 *D(11,10,13,14) =   -173.837861     0.000000    -0.000000  -173.837861
	  109 D(11,12,1,19)   =     -1.563327     0.000000     0.887733    -0.675593
	  110 D(12,1,2,15)    =    179.291733     0.000000    -0.071898   179.219834
	  111 D(12,7,6,16)    =   -179.194988     0.000001    -0.424075  -179.619063
	  112 D(12,7,8,18)    =    179.387143     0.000006     0.783827   180.170971
	  113 D(12,11,10,13)  =    178.775989     0.000006     0.562423   179.338412
	  114 D(13,10,9,17)   =     -0.115404     0.000002     0.373285     0.257881
	  115 D(13,10,11,20)  =     -0.706103    -0.000000     0.195413    -0.510690
	  116 D(15,2,1,19)    =     -0.105880     0.000001    -0.490979    -0.596859
	  117 D(17,9,8,18)    =      1.474035    -0.000005    -0.543844     0.930190
	 ---------------------------------------------------------------------------
	Successfully symmetrized geometry.
	The BAD_STEP_EXCEPTion handler:
	Step is far too large.

	Dynamic level is 1.
	Consecutive backsteps is 0.
	The INTCO_EXCEPTion handler:
	Too many bad steps.
	Dynamic level is 1.
	exc.g_really_quit() is 0.
	Raising dynamic level to 2. ~
	Removing binary optimization data file.

    Structure for next step:
    Molecular point group: c1
    Full point group: C1

    Geometry (in Angstrom), charge = 0, multiplicity = 1:

    N           -1.021170221310    -1.484189344632     0.292709993419
    C           -2.337761221310    -1.142660344632     0.457804993419
    C           -2.664104221310     0.385398655368     0.377374993419
    F           -3.656754221310     0.550319655368    -0.563081006581
    F           -3.164579221310     0.763808655368     1.602843993419
    C           -1.485311221310     1.355467655368     0.016689993419
    C           -0.132027221310     0.769018655368    -0.119449006581
    C            0.974304778690     1.596572655368    -0.410717006581
    C            2.265613778690     1.064589655368    -0.524206006581
    C            2.484453778690    -0.332199344632    -0.369618006581
    C            1.372679778690    -1.158594344632    -0.090884006581
    C            0.076094778690    -0.629329344632     0.030790993419
    S            4.048436778690    -1.176330344632    -0.453234006581
    C            5.342323778690     0.083587655368    -0.633851006581
    O           -3.178885221310    -2.004768344632     0.667880993419
    O           -1.688104221310     2.557838655368    -0.123689006581
    H            3.085466778690     1.754824655368    -0.713453006581
    H            0.799365778690     2.666070655368    -0.533540006581
    H           -0.873086221310    -2.481245344632     0.368720993419
    H            1.522906778690    -2.231315344632     0.041568993419
    H            5.608089778690     0.470705655368     0.354541993419
    H            6.224787778690    -0.393776344632    -1.071712006581
    H            5.014092778690     0.887531655368    -1.297199006581

gradient() will perform analytic gradient computation.

*** tstart() called on cpu-spot-dy-c5n2xlarge-1
*** at Tue Jun 22 04:32:34 2021

   => Loading Basis Set <=

    Name: 6-31+G*
    Role: ORBITAL
    Keyword: BASIS
    atoms 1             entry N          line   138 file /fsx/users/francis/anaconda3/envs/poltype-dev/share/psi4/basis/6-31pgs.gbs 
    atoms 2-3, 6-12, 14 entry C          line   119 file /fsx/users/francis/anaconda3/envs/poltype-dev/share/psi4/basis/6-31pgs.gbs 
    atoms 4-5           entry F          line   176 file /fsx/users/francis/anaconda3/envs/poltype-dev/share/psi4/basis/6-31pgs.gbs 
    atoms 13            entry S          line   344 file /fsx/users/francis/anaconda3/envs/poltype-dev/share/psi4/basis/6-31pgs.gbs 
    atoms 15-16         entry O          line   157 file /fsx/users/francis/anaconda3/envs/poltype-dev/share/psi4/basis/6-31pgs.gbs 
    atoms 17-23         entry H          line    46 file /fsx/users/francis/anaconda3/envs/poltype-dev/share/psi4/basis/6-31pgs.gbs 


         ---------------------------------------------------------
                                   SCF
               by Justin Turney, Rob Parrish, Andy Simmonett
                          and Daniel G. A. Smith
                              RKS Reference
                        8 Threads,  15258 MiB Core
         ---------------------------------------------------------

  ==> Geometry <==

    Molecular point group: c1
    Full point group: C1

    Geometry (in Angstrom), charge = 0, multiplicity = 1:

       Center              X                  Y                   Z               Mass       
    ------------   -----------------  -----------------  -----------------  -----------------
         N           -1.021170221310    -1.484189344632     0.292709993419    14.003074004430
         C           -2.337761221310    -1.142660344632     0.457804993419    12.000000000000
         C           -2.664104221310     0.385398655368     0.377374993419    12.000000000000
         F           -3.656754221310     0.550319655368    -0.563081006581    18.998403162730
         F           -3.164579221310     0.763808655368     1.602843993419    18.998403162730
         C           -1.485311221310     1.355467655368     0.016689993419    12.000000000000
         C           -0.132027221310     0.769018655368    -0.119449006581    12.000000000000
         C            0.974304778690     1.596572655368    -0.410717006581    12.000000000000
         C            2.265613778690     1.064589655368    -0.524206006581    12.000000000000
         C            2.484453778690    -0.332199344632    -0.369618006581    12.000000000000
         C            1.372679778690    -1.158594344632    -0.090884006581    12.000000000000
         C            0.076094778690    -0.629329344632     0.030790993419    12.000000000000
         S            4.048436778690    -1.176330344632    -0.453234006581    31.972071174400
         C            5.342323778690     0.083587655368    -0.633851006581    12.000000000000
         O           -3.178885221310    -2.004768344632     0.667880993419    15.994914619570
         O           -1.688104221310     2.557838655368    -0.123689006581    15.994914619570
         H            3.085466778690     1.754824655368    -0.713453006581     1.007825032230
         H            0.799365778690     2.666070655368    -0.533540006581     1.007825032230
         H           -0.873086221310    -2.481245344632     0.368720993419     1.007825032230
         H            1.522906778690    -2.231315344632     0.041568993419     1.007825032230
         H            5.608089778690     0.470705655368     0.354541993419     1.007825032230
         H            6.224787778690    -0.393776344632    -1.071712006581     1.007825032230
         H            5.014092778690     0.887531655368    -1.297199006581     1.007825032230

  Running in c1 symmetry.

  Rotational constants: A =      0.03852  B =      0.00807  C =      0.00695 [cm^-1]
  Rotational constants: A =   1154.74342  B =    242.03654  C =    208.29267 [MHz]
  Nuclear repulsion = 1173.692225161256147

  Charge       = 0
  Multiplicity = 1
  Electrons    = 124
  Nalpha       = 62
  Nbeta        = 62

  ==> Algorithm <==

  SCF Algorithm Type is DF.
  DIIS enabled.
  MOM disabled.
  Fractional occupation disabled.
  Guess Type is READ.
  Energy threshold   = 1.00e-08
  Density threshold  = 1.00e-08
  Integral threshold = 0.00e+00

  ==> Primary Basis <==

  Basis Set: 6-31+G*
    Blend: 6-31+G*
    Number of shells: 144
    Number of basis function: 322
    Number of Cartesian functions: 322
    Spherical Harmonics?: false
    Max angular momentum: 2

  ==> DFT Potential <==

   => Composite Functional: WB97X-D <= 

    wB97X-D Hyb-GGA Exchange-Correlation Functional

    J.-D. Chai and M. Head-Gordon, Phys. Chem. Chem. Phys. 10, 6615 (2008)

    Deriv               =              1
    GGA                 =           TRUE
    Meta                =          FALSE

    Exchange Hybrid     =           TRUE
    MP2 Hybrid          =          FALSE

   => Exchange-Correlation Functionals <=

    1.0000   wB97D range-separated functional

   => Exact (HF) Exchange <=

    0.7780            HF,LR [omega = 0.2000]
    0.2220               HF 

   => Molecular Quadrature <=

    Radial Scheme          =       TREUTLER
    Pruning Scheme         =           FLAT
    Nuclear Scheme         =       TREUTLER

    BS radius alpha        =              1
    Pruning alpha          =              1
    Radial Points          =             75
    Spherical Points       =            302
    Total Points           =         520856
    Total Blocks           =           3878
    Max Points             =            256
    Max Functions          =            279

   => WB97X-D: Empirical Dispersion <=

    Chai and Head-Gordon Dispersion Correction
    Chai, J.-D.; Head-Gordon, M. (2010), J. Chem. Phys., 132: 6615-6620

        s6 =       1.000000

   => Loading Basis Set <=

    Name: (6-31+G* AUX)
    Role: JKFIT
    Keyword: DF_BASIS_SCF
    atoms 1             entry N          line   252 file /fsx/users/francis/anaconda3/envs/poltype-dev/share/psi4/basis/heavy-aug-cc-pvdz-jkfit.gbs 
    atoms 2-3, 6-12, 14 entry C          line   194 file /fsx/users/francis/anaconda3/envs/poltype-dev/share/psi4/basis/heavy-aug-cc-pvdz-jkfit.gbs 
    atoms 4-5           entry F          line   368 file /fsx/users/francis/anaconda3/envs/poltype-dev/share/psi4/basis/heavy-aug-cc-pvdz-jkfit.gbs 
    atoms 13            entry S          line   730 file /fsx/users/francis/anaconda3/envs/poltype-dev/share/psi4/basis/heavy-aug-cc-pvdz-jkfit.gbs 
    atoms 15-16         entry O          line   310 file /fsx/users/francis/anaconda3/envs/poltype-dev/share/psi4/basis/heavy-aug-cc-pvdz-jkfit.gbs 
    atoms 17-23         entry H          line   116 file /fsx/users/francis/anaconda3/envs/poltype-dev/share/psi4/basis/heavy-aug-cc-pvdz-jkfit.gbs 

   => Loading Basis Set <=

    Name: 6-31+G*
    Role: ORBITAL
    Keyword: BASIS
    atoms 1             entry N          line   138 file /fsx/users/francis/anaconda3/envs/poltype-dev/share/psi4/basis/6-31pgs.gbs 
    atoms 2-3, 6-12, 14 entry C          line   119 file /fsx/users/francis/anaconda3/envs/poltype-dev/share/psi4/basis/6-31pgs.gbs 
    atoms 4-5           entry F          line   176 file /fsx/users/francis/anaconda3/envs/poltype-dev/share/psi4/basis/6-31pgs.gbs 
    atoms 13            entry S          line   344 file /fsx/users/francis/anaconda3/envs/poltype-dev/share/psi4/basis/6-31pgs.gbs 
    atoms 15-16         entry O          line   157 file /fsx/users/francis/anaconda3/envs/poltype-dev/share/psi4/basis/6-31pgs.gbs 
    atoms 17-23         entry H          line    46 file /fsx/users/francis/anaconda3/envs/poltype-dev/share/psi4/basis/6-31pgs.gbs 

  Reading orbitals from file 180, no projection.

  ==> Pre-Iterations <==

   -------------------------------------------------------
    Irrep   Nso     Nmo     Nalpha   Nbeta   Ndocc  Nsocc
   -------------------------------------------------------
     A        322     322       0       0       0       0
   -------------------------------------------------------
    Total     322     322      62      62      62       0
   -------------------------------------------------------

  ==> Integral Setup <==

  ==> DiskDFJK: Density-Fitted J/K Matrices <==

    J tasked:                  Yes
    K tasked:                  Yes
    wK tasked:                 Yes
    Omega:               2.000E-01
    OpenMP threads:              8
    Integrals threads:           8
    Memory [MiB]:             8461
    Algorithm:                Core
    Integral Cache:           NONE
    Schwarz Cutoff:          1E-12
    Fitting Condition:       1E-10

   => Auxiliary Basis Set <=

  Basis Set: (6-31+G* AUX)
    Blend: HEAVY-AUG-CC-PVDZ-JKFIT
    Number of shells: 523
    Number of basis function: 1840
    Number of Cartesian functions: 1840
    Spherical Harmonics?: false
    Max angular momentum: 3

  Cached 100.0% of DFT collocation blocks in 2.913 [GiB].

  Minimum eigenvalue in the overlap matrix is 5.0388207269E-07.
  Using Symmetric Orthogonalization.

  SCF Guess: Orbitals guess was supplied from a previous computation.

  ==> Iterations <==

                           Total Energy        Delta E     RMS |[F,P]|

   @DF-RKS iter   0: -1188.11438432505656   -1.18811e+03   1.75834e-07 
   @DF-RKS iter   1: -1188.11438432813065   -3.07409e-09   1.78633e-08 DIIS
   @DF-RKS iter   2: -1188.11438432816772   -3.70619e-11   3.49198e-09 DIIS
  Energy and wave function converged.


  ==> Post-Iterations <==

    Orbital Energies [Eh]
    ---------------------

    Doubly Occupied:                                                      

       1A    -89.086008     2A    -24.874124     3A    -24.871709  
       4A    -19.304740     5A    -19.293300     6A    -14.542207  
       7A    -10.510094     8A    -10.458056     9A    -10.435103  
      10A    -10.410981    11A    -10.394231    12A    -10.358913  
      13A    -10.355332    14A    -10.352686    15A    -10.352535  
      16A    -10.347359    17A     -8.103335    18A     -6.054105  
      19A     -6.049502    20A     -6.043493    21A     -1.381269  
      22A     -1.324873    23A     -1.188507    24A     -1.174423  
      25A     -1.091549    26A     -0.999123    27A     -0.940190  
      28A     -0.903826    29A     -0.885853    30A     -0.869301  
      31A     -0.798080    32A     -0.763342    33A     -0.750258  
      34A     -0.744129    35A     -0.693112    36A     -0.678254  
      37A     -0.665501    38A     -0.643996    39A     -0.627967  
      40A     -0.589323    41A     -0.583616    42A     -0.564416  
      43A     -0.561729    44A     -0.555831    45A     -0.554119  
      46A     -0.551200    47A     -0.548576    48A     -0.535242  
      49A     -0.521878    50A     -0.515954    51A     -0.506537  
      52A     -0.498718    53A     -0.490611    54A     -0.485805  
      55A     -0.474547    56A     -0.439003    57A     -0.429655  
      58A     -0.395709    59A     -0.394872    60A     -0.367308  
      61A     -0.339573    62A     -0.318137  

    Virtual:                                                              

      63A     -0.046344    64A      0.011483    65A      0.039278  
      66A      0.047537    67A      0.052034    68A      0.065068  
      69A      0.066760    70A      0.074862    71A      0.080789  
      72A      0.086170    73A      0.092494    74A      0.095365  
      75A      0.104932    76A      0.111285    77A      0.115008  
      78A      0.117215    79A      0.118547    80A      0.132460  
      81A      0.137280    82A      0.137682    83A      0.143827  
      84A      0.149342    85A      0.154630    86A      0.162356  
      87A      0.169927    88A      0.173037    89A      0.178278  
      90A      0.180306    91A      0.185275    92A      0.189097  
      93A      0.192008    94A      0.197123    95A      0.202868  
      96A      0.206563    97A      0.210596    98A      0.217494  
      99A      0.222547   100A      0.225827   101A      0.233806  
     102A      0.236186   103A      0.241951   104A      0.243310  
     105A      0.247694   106A      0.249633   107A      0.255715  
     108A      0.261121   109A      0.264317   110A      0.272129  
     111A      0.276603   112A      0.283694   113A      0.287384  
     114A      0.288410   115A      0.299231   116A      0.300967  
     117A      0.311912   118A      0.312577   119A      0.321153  
     120A      0.327440   121A      0.330247   122A      0.331456  
     123A      0.338319   124A      0.342583   125A      0.354519  
     126A      0.358078   127A      0.362341   128A      0.375339  
     129A      0.379822   130A      0.383001   131A      0.391974  
     132A      0.394501   133A      0.397355   134A      0.402016  
     135A      0.411532   136A      0.418235   137A      0.429570  
     138A      0.442352   139A      0.444079   140A      0.447414  
     141A      0.458966   142A      0.471499   143A      0.477258  
     144A      0.482265   145A      0.503148   146A      0.510325  
     147A      0.523382   148A      0.529825   149A      0.535873  
     150A      0.555474   151A      0.574193   152A      0.579961  
     153A      0.585090   154A      0.594512   155A      0.606096  
     156A      0.626503   157A      0.655673   158A      0.662993  
     159A      0.673142   160A      0.695611   161A      0.728521  
     162A      0.741721   163A      0.754329   164A      0.759741  
     165A      0.769101   166A      0.771792   167A      0.788804  
     168A      0.797572   169A      0.803631   170A      0.814885  
     171A      0.822113   172A      0.837707   173A      0.857855  
     174A      0.877121   175A      0.880158   176A      0.885647  
     177A      0.897407   178A      0.915765   179A      0.927861  
     180A      0.931695   181A      0.963722   182A      0.971321  
     183A      0.982722   184A      0.987700   185A      1.011005  
     186A      1.021021   187A      1.047901   188A      1.056698  
     189A      1.072481   190A      1.079286   191A      1.084071  
     192A      1.096605   193A      1.116686   194A      1.150082  
     195A      1.154651   196A      1.170995   197A      1.201703  
     198A      1.206026   199A      1.208273   200A      1.225730  
     201A      1.229659   202A      1.236509   203A      1.267999  
     204A      1.282903   205A      1.286691   206A      1.321070  
     207A      1.322999   208A      1.335949   209A      1.342586  
     210A      1.387791   211A      1.401666   212A      1.407189  
     213A      1.414766   214A      1.419816   215A      1.438901  
     216A      1.447427   217A      1.450229   218A      1.464837  
     219A      1.470198   220A      1.484703   221A      1.505388  
     222A      1.514191   223A      1.525814   224A      1.532673  
     225A      1.550657   226A      1.591477   227A      1.619965  
     228A      1.651140   229A      1.663536   230A      1.671984  
     231A      1.709133   232A      1.748852   233A      1.754126  
     234A      1.758322   235A      1.760170   236A      1.763372  
     237A      1.771698   238A      1.781926   239A      1.788571  
     240A      1.819320   241A      1.838909   242A      1.864079  
     243A      1.874129   244A      1.894098   245A      1.899699  
     246A      1.910846   247A      1.919753   248A      1.945753  
     249A      1.962989   250A      1.967873   251A      1.971981  
     252A      2.004689   253A      2.039191   254A      2.048032  
     255A      2.055246   256A      2.061159   257A      2.078074  
     258A      2.091275   259A      2.099097   260A      2.112786  
     261A      2.145364   262A      2.152636   263A      2.166086  
     264A      2.199798   265A      2.206098   266A      2.209802  
     267A      2.244591   268A      2.255983   269A      2.260671  
     270A      2.276836   271A      2.303075   272A      2.306742  
     273A      2.315246   274A      2.343770   275A      2.349090  
     276A      2.367189   277A      2.382624   278A      2.403900  
     279A      2.461445   280A      2.466478   281A      2.510360  
     282A      2.513449   283A      2.568432   284A      2.625850  
     285A      2.657028   286A      2.677016   287A      2.704268  
     288A      2.729801   289A      2.737386   290A      2.768510  
     291A      2.777980   292A      2.827620   293A      2.828265  
     294A      2.850264   295A      2.898297   296A      2.946006  
     297A      2.959129   298A      3.029561   299A      3.115286  
     300A      3.154602   301A      3.214753   302A      3.238642  
     303A      3.337332   304A      3.378778   305A      3.462168  
     306A      3.483928   307A      4.034787   308A      4.279338  
     309A      4.312489   310A      4.332400   311A      4.360768  
     312A      4.376868   313A      4.415700   314A      4.469244  
     315A      4.486049   316A      4.521078   317A      4.580264  
     318A      4.778676   319A      4.834566   320A      5.103448  
     321A      5.708763   322A      7.126161  

    Final Occupation by Irrep:
              A 
    DOCC [    62 ]

  @DF-RKS Final Energy: -1188.11438432816772

   => Energetics <=

    Nuclear Repulsion Energy =           1173.6922251612561467
    One-Electron Energy =               -3961.4648510202569014
    Two-Electron Energy =                1689.1103045187526277
    DFT Exchange-Correlation Energy =     -89.4386159071429603
    Empirical Dispersion Energy =          -0.0134470807765094
    VV10 Nonlocal Energy =                  0.0000000000000000
    Total Energy =                      -1188.1143843281679437

Computation Completed


Properties will be evaluated at   0.000000,   0.000000,   0.000000 [a0]

Properties computed using the SCF density matrix

  Nuclear Dipole Moment: [e a0]
     X:    26.5660      Y:    -0.6330      Z:    -3.6639

  Electronic Dipole Moment: [e a0]
     X:   -23.2740      Y:     0.2745      Z:     3.2656

  Dipole Moment: [e a0]
     X:     3.2920      Y:    -0.3585      Z:    -0.3983     Total:     3.3353

  Dipole Moment: [D]
     X:     8.3673      Y:    -0.9113      Z:    -1.0123     Total:     8.4775


*** tstop() called on cpu-spot-dy-c5n2xlarge-1 at Tue Jun 22 04:32:57 2021
Module time:
	user time   =     155.17 seconds =       2.59 minutes
	system time =       2.69 seconds =       0.04 minutes
	total time  =         23 seconds =       0.38 minutes
Total time:
	user time   =     876.32 seconds =      14.61 minutes
	system time =      17.01 seconds =       0.28 minutes
	total time  =        123 seconds =       2.05 minutes

*** tstart() called on cpu-spot-dy-c5n2xlarge-1
*** at Tue Jun 22 04:32:57 2021


         ------------------------------------------------------------
                                   SCF GRAD                          
                          Rob Parrish, Justin Turney,                
                       Andy Simmonett, and Alex Sokolov              
         ------------------------------------------------------------

  ==> Geometry <==

    Molecular point group: c1
    Full point group: C1

    Geometry (in Angstrom), charge = 0, multiplicity = 1:

       Center              X                  Y                   Z               Mass       
    ------------   -----------------  -----------------  -----------------  -----------------
         N           -1.021170221310    -1.484189344632     0.292709993419    14.003074004430
         C           -2.337761221310    -1.142660344632     0.457804993419    12.000000000000
         C           -2.664104221310     0.385398655368     0.377374993419    12.000000000000
         F           -3.656754221310     0.550319655368    -0.563081006581    18.998403162730
         F           -3.164579221310     0.763808655368     1.602843993419    18.998403162730
         C           -1.485311221310     1.355467655368     0.016689993419    12.000000000000
         C           -0.132027221310     0.769018655368    -0.119449006581    12.000000000000
         C            0.974304778690     1.596572655368    -0.410717006581    12.000000000000
         C            2.265613778690     1.064589655368    -0.524206006581    12.000000000000
         C            2.484453778690    -0.332199344632    -0.369618006581    12.000000000000
         C            1.372679778690    -1.158594344632    -0.090884006581    12.000000000000
         C            0.076094778690    -0.629329344632     0.030790993419    12.000000000000
         S            4.048436778690    -1.176330344632    -0.453234006581    31.972071174400
         C            5.342323778690     0.083587655368    -0.633851006581    12.000000000000
         O           -3.178885221310    -2.004768344632     0.667880993419    15.994914619570
         O           -1.688104221310     2.557838655368    -0.123689006581    15.994914619570
         H            3.085466778690     1.754824655368    -0.713453006581     1.007825032230
         H            0.799365778690     2.666070655368    -0.533540006581     1.007825032230
         H           -0.873086221310    -2.481245344632     0.368720993419     1.007825032230
         H            1.522906778690    -2.231315344632     0.041568993419     1.007825032230
         H            5.608089778690     0.470705655368     0.354541993419     1.007825032230
         H            6.224787778690    -0.393776344632    -1.071712006581     1.007825032230
         H            5.014092778690     0.887531655368    -1.297199006581     1.007825032230

  Nuclear repulsion = 1173.692225161256147

  ==> Basis Set <==

  Basis Set: 6-31+G*
    Blend: 6-31+G*
    Number of shells: 144
    Number of basis function: 322
    Number of Cartesian functions: 322
    Spherical Harmonics?: false
    Max angular momentum: 2

  ==> DFJKGrad: Density-Fitted SCF Gradients <==

    Gradient:                    1
    J tasked:                  Yes
    K tasked:                  Yes
    wK tasked:                 Yes
    Omega:               2.000E-01
    OpenMP threads:              8
    Integrals threads:           8
    Memory [MiB]:            11444
    Schwarz Cutoff:          0E+00
    Fitting Condition:       1E-10

   => Auxiliary Basis Set <=

  Basis Set: (6-31+G* AUX)
    Blend: HEAVY-AUG-CC-PVDZ-JKFIT
    Number of shells: 523
    Number of basis function: 1840
    Number of Cartesian functions: 1840
    Spherical Harmonics?: false
    Max angular momentum: 3

  ==> DFT Potential <==

   => Composite Functional: WB97X-D <= 

    wB97X-D Hyb-GGA Exchange-Correlation Functional

    J.-D. Chai and M. Head-Gordon, Phys. Chem. Chem. Phys. 10, 6615 (2008)

    Deriv               =              1
    GGA                 =           TRUE
    Meta                =          FALSE

    Exchange Hybrid     =           TRUE
    MP2 Hybrid          =          FALSE

   => Exchange-Correlation Functionals <=

    1.0000   wB97D range-separated functional

   => Exact (HF) Exchange <=

    0.7780            HF,LR [omega = 0.2000]
    0.2220               HF 

   => Molecular Quadrature <=

    Radial Scheme          =       TREUTLER
    Pruning Scheme         =           FLAT
    Nuclear Scheme         =       TREUTLER

    BS radius alpha        =              1
    Pruning alpha          =              1
    Radial Points          =             75
    Spherical Points       =            302
    Total Points           =         520856
    Total Blocks           =           3878
    Max Points             =            256
    Max Functions          =            279


  -Total Gradient:
     Atom            X                  Y                   Z
    ------   -----------------  -----------------  -----------------
       1       -0.009465572804    -0.010900920155     0.001903693556
       2        0.007831045859     0.011386289511    -0.002949267177
       3        0.013229883416    -0.003926460827     0.001154460331
       4       -0.013784399576     0.002437281751    -0.014166173570
       5       -0.006190001818     0.004692814513     0.015373302562
       6       -0.008434429590    -0.021640480733     0.003345128279
       7       -0.000041536695     0.007510810474     0.000576017810
       8       -0.003902601213     0.013506966507    -0.002669557858
       9        0.005822041155     0.003511093358    -0.001519017099
      10        0.009095743256    -0.010645783766    -0.004636093559
      11        0.004306658168    -0.002433928505     0.000390276460
      12       -0.001945615745    -0.005739513395     0.002262920045
      13        0.005585048929     0.003458311186     0.003541481292
      14        0.005045259087    -0.004471482959    -0.004603517456
      15       -0.008546385371    -0.021589438993     0.003609444774
      16        0.004452164666     0.028958825171    -0.004481949859
      17        0.000744070138     0.003581506220     0.000086298987
      18       -0.000935488702     0.003831250618    -0.000818900963
      19       -0.004177500202     0.001701590094     0.000343648293
      20        0.000384951777    -0.002445593500     0.000477264423
      21        0.000082288697    -0.003269589369     0.002818224346
      22        0.003897177445     0.002190798969    -0.000034152684
      23       -0.002363837558    -0.000065904488    -0.000121458051


*** tstop() called on cpu-spot-dy-c5n2xlarge-1 at Tue Jun 22 04:33:21 2021
Module time:
	user time   =     150.69 seconds =       2.51 minutes
	system time =       3.64 seconds =       0.06 minutes
	total time  =         24 seconds =       0.40 minutes
Total time:
	user time   =    1027.02 seconds =      17.12 minutes
	system time =      20.65 seconds =       0.34 minutes
	total time  =        147 seconds =       2.45 minutes

			-----------------------------------------
			 OPTKING 2.0: for geometry optimizations 
			  - R.A. King,  Bethel University        
			-----------------------------------------
	At level 2: Red. Int., RFO, backsteps, smaller trust.

	Internal coordinates to be generated automatically.
	Detected frag 1 with atoms:  1 2 3 4 5 6 7 8 9 10 11 12 13 14 15 16 17 18 19 20
	 21 22 23
	---Fragment 1 Bond Connectivity---
	 1 : 2 12 19
	 2 : 1 3 15
	 3 : 2 4 5 6
	 4 : 3
	 5 : 3
	 6 : 3 7 16
	 7 : 6 8 12
	 8 : 7 9 18
	 9 : 8 10 17
	 10 : 9 11 13
	 11 : 10 12 20
	 12 : 1 7 11
	 13 : 10 14
	 14 : 13 21 22 23
	 15 : 2
	 16 : 6
	 17 : 9
	 18 : 8
	 19 : 1
	 20 : 11
	 21 : 14
	 22 : 14
	 23 : 14

	Assuming in current code that numbering for constraints corresponds to unified fragment.
	Frozen dihedral atom list: 
	    11    10    13    14
	     9    10    13    14
	    21    14    13    10
	---Fragment 1 Geometry and Gradient---
	 N          -1.9297320457       -2.8047113797        0.5531417217
	 C          -4.4177284550       -2.1593151058        0.8651260564
	 C          -5.0344273480        0.7282979078        0.7131353842
	 F          -6.9102639864        1.0399534301       -1.0640688889
	 F          -5.9801880306        1.4433891709        3.0289361694
	 C          -2.8068314193        2.5614626406        0.0315395166
	 C          -0.2494952894        1.4532346440       -0.2257259084
	 C           1.8411691944        3.0170850580       -0.7761426575
	 C           4.2813895478        2.0117828846       -0.9906057858
	 C           4.6949372131       -0.6277657804       -0.6984768035
	 C           2.5939888397       -2.1894260019       -0.1717458816
	 C           0.1437982913       -1.1892601041        0.0581865447
	 S           7.6504367480       -2.2229421844       -0.8564881432
	 C          10.0955288152        0.1579577761       -1.1978048068
	 O          -6.0072224525       -3.7884631163        1.2621121620
	 O          -3.1900546495        4.8336145318       -0.2337383472
	 H           5.8306871809        3.3161379968       -1.3482307858
	 H           1.5105823958        5.0381433698       -1.0082444894
	 H          -1.6498938422       -4.6888741514        0.6967816943
	 H           2.8778767263       -4.2165749009        0.0785540129
	 H          10.5977537687        0.8895047743        0.6699872675
	 H          11.7631440908       -0.7441294460       -2.0252421778
	 H           9.4752621194        1.6771917563       -2.4513508527
	            -0.0094655728       -0.0109009202        0.0019036936
[...]
	   18 R(10,13)        =      1.763228     0.000248     0.000066     1.763294
	   19 R(11,12)        =      1.390756     0.000075     0.000057     1.390813
	   20 R(11,20)        =      1.087574    -0.000356    -0.000149     1.087426
	   21 R(13,14)        =      1.810488     0.000773     0.000707     1.811195
	   22 R(14,21)        =      1.092181    -0.000155    -0.000020     1.092161
	   23 R(14,22)        =      1.093061     0.000127     0.000031     1.093091
	   24 R(14,23)        =      1.090669     0.000130     0.000091     1.090760
	   25 B(1,2,3)        =    115.921918     0.000003    -0.006611   115.915307
	   26 B(1,2,15)       =    122.933255    -0.000004    -0.002296   122.930959
	   27 B(1,12,7)       =    120.814309     0.000001     0.011264   120.825573
	   28 B(1,12,11)      =    119.022786     0.000003     0.033029   119.055815
	   29 B(2,1,12)       =    127.040994    -0.000001    -0.024052   127.016942
	   30 B(2,1,19)       =    114.511483    -0.000001    -0.013663   114.497820
	   31 B(2,3,4)        =    107.707107     0.000002     0.010230   107.717337
	   32 B(2,3,5)        =    106.775487     0.000001    -0.017381   106.758106
	   33 B(2,3,6)        =    117.876344    -0.000005    -0.005254   117.871089
	   34 B(3,2,15)       =    121.136935     0.000001     0.008357   121.145292
	   35 B(3,6,7)        =    116.952246     0.000002    -0.038109   116.914137
	   36 B(3,6,16)       =    118.279900    -0.000003     0.049959   118.329858
	   37 B(4,3,5)        =    108.310225    -0.000001     0.005022   108.315247
	   38 B(4,3,6)        =    108.549049     0.000004     0.043586   108.592635
	   39 B(5,3,6)        =    107.296958    -0.000000    -0.036756   107.260202
	   40 B(6,7,8)        =    120.216360    -0.000003    -0.096910   120.119450
	   41 B(6,7,12)       =    121.078056    -0.000000     0.036336   121.114392
	   42 B(7,6,16)       =    124.759800     0.000001    -0.012439   124.747362
	   43 B(7,8,9)        =    121.526966     0.000001    -0.019516   121.507450
	   44 B(7,8,18)       =    118.012531    -0.000002    -0.006664   118.005867
	   45 B(7,12,11)      =    120.162828    -0.000005    -0.044231   120.118597
	   46 B(8,7,12)       =    118.705455     0.000003     0.060388   118.765842
	   47 B(8,9,10)       =    119.574121    -0.000005    -0.025289   119.548831
	   48 B(8,9,17)       =    119.095022     0.000005     0.041452   119.136475
	   49 B(9,8,18)       =    120.459786     0.000000     0.026250   120.486036
	   50 B(9,10,11)      =    119.506372     0.000004     0.044837   119.551209
	   51 B(9,10,13)      =    124.948222    -0.000000    -0.079862   124.868359
	   52 B(10,9,17)      =    121.329890    -0.000000    -0.016289   121.313601
	   53 B(10,11,12)     =    120.509355     0.000001    -0.017901   120.491454
	   54 B(10,11,20)     =    119.755041     0.000002     0.033765   119.788806
	   55 B(10,13,14)     =    104.956830     0.000001     0.034218   104.991047
	   56 B(11,10,13)     =    115.528969    -0.000004     0.035007   115.563976
	   57 B(12,1,19)      =    118.430749     0.000002     0.034866   118.465615
	   58 B(12,11,20)     =    119.735068    -0.000003    -0.016355   119.718713
	   59 B(13,14,21)     =    111.616864    -0.000000    -0.011988   111.604876
	   60 B(13,14,22)     =    105.158432    -0.000000    -0.022989   105.135443
	   61 B(13,14,23)     =    112.466559     0.000002     0.058518   112.525076
	   62 B(21,14,22)     =    108.077440    -0.000003     0.034152   108.111592
	   63 B(21,14,23)     =    111.538681     0.000002    -0.064887   111.473794
	   64 B(22,14,23)     =    107.600547    -0.000001     0.010794   107.611342
	   65 D(1,2,3,4)      =    129.166261     0.000001     0.309140   129.475401
	   66 D(1,2,3,5)      =   -114.685767     0.000001     0.311246  -114.374521
	   67 D(1,2,3,6)      =      6.028469     0.000000     0.245745     6.274214
	   68 D(1,12,7,6)     =     -0.315919     0.000000    -0.043529    -0.359448
	   69 D(1,12,7,8)     =    179.814352     0.000000     0.030403   179.844755
	   70 D(1,12,11,10)   =    179.392040    -0.000000    -0.064663   179.327378
	   71 D(1,12,11,20)   =     -0.340961    -0.000000     0.037844    -0.303117
	   72 D(2,1,12,7)     =     -0.093672    -0.000000     0.026506    -0.067166
	   73 D(2,1,12,11)    =    179.805621    -0.000000     0.082088   179.887709
	   74 D(2,3,6,7)      =     -6.447642    -0.000001    -0.262467    -6.710109
	   75 D(2,3,6,16)     =    174.535148    -0.000000    -0.227029   174.308120
	   76 D(3,2,1,12)     =     -2.885110    -0.000000    -0.131805    -3.016915
	   77 D(3,2,1,19)     =    178.640471    -0.000000    -0.007948   178.632522
	   78 D(3,6,7,8)      =   -176.475494     0.000000     0.090008  -176.385486
	   79 D(3,6,7,12)     =      3.656732     0.000000     0.164726     3.821458
	   80 D(4,3,2,15)     =    -51.826736     0.000001     0.275145   -51.551591
	   81 D(4,3,6,7)      =   -129.159752    -0.000001    -0.309227  -129.468978
	   82 D(4,3,6,16)     =     51.823039    -0.000001    -0.273788    51.549250
	   83 D(5,3,2,15)     =     64.321235     0.000001     0.277251    64.598487
	   84 D(5,3,6,7)      =    113.996177    -0.000001    -0.318111   113.678066
	   85 D(5,3,6,16)     =    -65.021033    -0.000001    -0.282672   -65.303705
	   86 D(6,3,2,15)     =   -174.964528     0.000000     0.211750  -174.752778
	   87 D(6,7,8,9)      =   -179.725111     0.000000     0.076184  -179.648926
	   88 D(6,7,8,18)     =      0.581603     0.000000     0.060737     0.642340
	   89 D(6,7,12,11)    =    179.785933    -0.000000    -0.099778   179.686155
	   90 D(7,8,9,10)     =      0.577826     0.000000     0.054396     0.632222
	   91 D(7,8,9,17)     =   -179.069226     0.000001     0.076661  -178.992565
	   92 D(7,12,1,19)    =    178.327848    -0.000000    -0.102396   178.225452
	   93 D(7,12,11,10)   =     -0.707995    -0.000000    -0.009426    -0.717421
	   94 D(7,12,11,20)   =    179.559003     0.000000     0.093081   179.652084
	   95 D(8,7,6,16)     =      2.471016     0.000000     0.052696     2.523712
	   96 D(8,7,12,11)    =     -0.083796    -0.000000    -0.025846    -0.109642
	   97 D(8,9,10,11)    =     -1.356299    -0.000000    -0.089741    -1.446040
	   98 D(8,9,10,13)    =   -179.812735    -0.000000    -0.089508  -179.902243
	   99 D(9,8,7,12)     =      0.145774     0.000000     0.003185     0.148959
	  100 D(9,10,11,12)   =      1.429143     0.000000     0.067973     1.497116
	  101 D(9,10,11,20)   =   -178.837908    -0.000000    -0.034740  -178.872648
	  102 *D(9,10,13,14)  =      4.673439    -0.000000    -0.000000     4.673439
	  103 D(10,9,8,18)    =   -179.736310     0.000000     0.070118  -179.666192
	  104 *D(10,13,14,21) =     83.872195    -0.000000    -0.000000    83.872195
	  105 D(10,13,14,22)  =   -159.180915    -0.000001     0.021145  -159.159769
	  106 D(10,13,14,23)  =    -42.370458    -0.000001     0.050264   -42.320194
	  107 D(11,10,9,17)   =    178.282643    -0.000001    -0.112297   178.170346
	  108 *D(11,10,13,14) =   -173.837861    -0.000000     0.000000  -173.837861
	  109 D(11,12,1,19)   =     -1.772859     0.000000    -0.046814    -1.819673
	  110 D(12,1,2,15)    =    178.127564     0.000000    -0.097256   178.030308
	  111 D(12,7,6,16)    =   -177.396758     0.000000     0.127414  -177.269344
	  112 D(12,7,8,18)    =   -179.547512     0.000000    -0.012263  -179.559775
	  113 D(12,11,10,13)  =   -179.972931     0.000000     0.065986  -179.906945
	  114 D(13,10,9,17)   =     -0.173793    -0.000001    -0.112063    -0.285856
	  115 D(13,10,11,20)  =     -0.239982    -0.000000    -0.036727    -0.276709
	  116 D(15,2,1,19)    =     -0.346856    -0.000000     0.026601    -0.320255
	  117 D(17,9,8,18)    =      0.616638     0.000001     0.092383     0.709021
	  118 R(1,X)          =     -1.004726    -0.000132    -0.001218    -1.005944
	  119 R(1,Y)          =     -1.480652     0.000350    -0.000793    -1.481445
	  120 R(1,Z)          =      0.299578    -0.000151     0.000885     0.300464
	  121 R(2,X)          =     -2.319081     0.000088    -0.001261    -2.320342
	  122 R(2,Y)          =     -1.122853     0.000533     0.000070    -1.122783
	  123 R(2,Z)          =      0.442739    -0.000355    -0.001176     0.441563
	  124 R(3,X)          =     -2.619989    -0.000374     0.000205    -2.619783
	  125 R(3,Y)          =      0.393100     0.000102     0.000726     0.393826
	  126 R(3,Z)          =      0.363751     0.000033     0.000221     0.363971
	  127 R(4,X)          =     -3.618380    -0.000800    -0.002326    -3.620706
	  128 R(4,Y)          =      0.567753     0.000326     0.002339     0.570092
	  129 R(4,Z)          =     -0.528852     0.001394     0.003853    -0.524998
	  130 R(5,X)          =     -3.072990     0.000508     0.004821    -3.068169
	  131 R(5,Y)          =      0.767865     0.000175     0.000560     0.768425
	  132 R(5,Z)          =      1.590346     0.000422     0.002017     1.592363
	  133 R(6,X)          =     -1.452359     0.000609     0.000766    -1.451593
	  134 R(6,Y)          =      1.346616    -0.000414    -0.000313     1.346303
	  135 R(6,Z)          =     -0.008314    -0.000306    -0.002044    -0.010358
	  136 R(7,X)          =     -0.116774    -0.000435    -0.000088    -0.116862
	  137 R(7,Y)          =      0.751543    -0.000348    -0.001432     0.750112
	  138 R(7,Z)          =     -0.115026     0.000082     0.000747    -0.114279
	  139 R(8,X)          =      0.995170    -0.000728    -0.000550     0.994620
	  140 R(8,Y)          =      1.559490     0.000009    -0.000994     1.558496
	  141 R(8,Z)          =     -0.373818     0.000151     0.000845    -0.372973
	  142 R(9,X)          =      2.266359    -0.000551    -0.000662     2.265697
	  143 R(9,Y)          =      1.026165     0.000888    -0.000655     1.025510
	  144 R(9,Z)          =     -0.485453     0.000132     0.001575    -0.483878
	  145 R(10,X)         =      2.451184    -0.001146    -0.001203     2.449981
	  146 R(10,Y)         =     -0.359032     0.000899    -0.000596    -0.359628
	  147 R(10,Z)         =     -0.348880     0.000203     0.001159    -0.347720
	  148 R(11,X)         =      1.349891    -0.000412    -0.000677     1.349214
	  149 R(11,Y)         =     -1.177533     0.000632    -0.001009    -1.178542
	  150 R(11,Z)         =     -0.073234     0.000313     0.001822    -0.071413
	  151 R(12,X)         =      0.075011    -0.000851    -0.000853     0.074158
	  152 R(12,Y)         =     -0.632634    -0.000202    -0.001228    -0.633862
	  153 R(12,Z)         =      0.036164     0.000298     0.001596     0.037760
	  154 R(13,X)         =      4.004170    -0.001248    -0.000482     4.003687
	  155 R(13,Y)         =     -1.186610     0.000195     0.000850    -1.185760
	  156 R(13,Z)         =     -0.459893     0.000083    -0.000558    -0.460451
	  157 R(14,X)         =      5.227578    -0.000089    -0.000594     5.226983
	  158 R(14,Y)         =      0.136766     0.000143     0.001826     0.138592
	  159 R(14,Z)         =     -0.632561    -0.000204    -0.001283    -0.633844
	  160 R(15,X)         =     -3.201354     0.000022    -0.002160    -3.203514
	  161 R(15,Y)         =     -1.925964    -0.000571     0.000528    -1.925436
	  162 R(15,Z)         =      0.638287    -0.000429    -0.003349     0.634937
	  163 R(16,X)         =     -1.700040     0.000527     0.002112    -1.697928
	  164 R(16,Y)         =      2.520701     0.000225    -0.000460     2.520241
	  165 R(16,Z)         =     -0.170881    -0.000680    -0.005259    -0.176139
	  166 R(17,X)         =      3.101341    -0.000341    -0.000203     3.101138
	  167 R(17,Y)         =      1.689933     0.000409    -0.001127     1.688806
	  168 R(17,Z)         =     -0.671359     0.000692     0.002890    -0.668468
	  169 R(18,X)         =      0.835185    -0.001374    -0.001240     0.833945
	  170 R(18,Y)         =      2.628140    -0.000447    -0.001307     2.626832
	  171 R(18,Z)         =     -0.481178     0.000239     0.000173    -0.481005
	  172 R(19,X)         =     -0.829178    -0.000612    -0.002365    -0.831543
	  173 R(19,Y)         =     -2.475398     0.000325    -0.001092    -2.476490
	  174 R(19,Z)         =      0.376379    -0.000101     0.000065     0.376444
	  175 R(20,X)         =      1.491335    -0.000504    -0.000963     1.490373
	  176 R(20,Y)         =     -2.248559     0.000972    -0.001004    -2.249562
	  177 R(20,Z)         =      0.052130     0.000238     0.000894     0.053024
	  178 R(21,X)         =      5.515085     0.000128    -0.000025     5.515060
	  179 R(21,Y)         =      0.548009    -0.000025     0.001461     0.549470
	  180 R(21,Z)         =      0.337531    -0.000372    -0.001320     0.336211
	  181 R(22,X)         =      6.106484     0.000016    -0.001146     6.105338
	  182 R(22,Y)         =     -0.342044    -0.000545     0.001936    -0.340108
	  183 R(22,Z)         =     -1.071931     0.000442    -0.002580    -1.074511
	  184 R(23,X)         =      4.900968     0.000984    -0.000904     4.900064
	  185 R(23,Y)         =      0.919430     0.000200     0.002983     0.922413
	  186 R(23,Z)         =     -1.318361    -0.000857     0.000043    -1.318318
	 ---------------------------------------------------------------------------
	Successfully symmetrized geometry.

  ==> Convergence Check <==

  Measures of convergence in internal coordinates in au.
  Criteria marked as inactive (o), active & met (*), and active & unmet ( ).
  ---------------------------------------------------------------------------------------------
   Step     Total Energy     Delta E     MAX Force     RMS Force      MAX Disp      RMS Disp   
  ---------------------------------------------------------------------------------------------
    Convergence Criteria             o    2.50e-03 *    1.70e-03 *    1.00e-02 *    6.70e-03 *
  ---------------------------------------------------------------------------------------------
     15   -1188.12093473   -9.85e-06 o    1.69e-04 *    5.01e-05 *    9.94e-03 *    2.37e-03 *  ~
  ---------------------------------------------------------------------------------------------


  **** Optimization is complete! (in 15 steps) ****

  ==> Optimization Summary <==

  Measures of convergence in internal coordinates in au.
  --------------------------------------------------------------------------------------------------------------- ~
   Step         Total Energy             Delta E       MAX Force       RMS Force        MAX Disp        RMS Disp  ~
  --------------------------------------------------------------------------------------------------------------- ~
      1   -1188.114385510414  -1188.114385510414      0.01499042      0.00293344      0.03205800      0.00733245  ~
      2   -1188.117377697398     -0.002992186984      0.00734434      0.00164098      0.03257463      0.00733252  ~
      3   -1188.119004640517     -0.001626943119      0.00348514      0.00083319      0.03360793      0.00733226  ~
      4   -1188.119844209359     -0.000839568843      0.00264211      0.00052693      0.04010672      0.00733187  ~
      5   -1188.120316359241     -0.000472149882      0.00155360      0.00033940      0.04147518      0.00726215  ~
      6   -1188.120564124638     -0.000247765396      0.00102174      0.00021168      0.02138721      0.00442257  ~
      7   -1188.120655384448     -0.000091259810      0.00088894      0.00016412      0.02743291      0.00472772  ~
      8   -1188.120725735782     -0.000070351334      0.00079054      0.00013439      0.02973891      0.00471906  ~
      9   -1188.120774518360     -0.000048782578      0.00068877      0.00012816      0.02948681      0.00467744  ~
     10   -1188.120820650985     -0.000046132625      0.00044779      0.00011163      0.03046280      0.00506725  ~
     11   -1188.120860340939     -0.000039689955      0.00032221      0.00009240      0.02325096      0.00409659  ~
     12   -1188.120888388702     -0.000028047763      0.00031173      0.00008559      0.01666905      0.00364333  ~
     13   -1188.120909748357     -0.000021359655      0.00026946      0.00007509      0.01280565      0.00354783  ~
     14   -1188.120924877234     -0.000015128877      0.00021557      0.00006172      0.01097362      0.00278049  ~
     15   -1188.120934728417     -0.000009851183      0.00016920      0.00005013      0.00993730      0.00236523  ~
  --------------------------------------------------------------------------------------------------------------- ~

	Writing optimization data to binary file.
	Final energy is  -1188.1209347284171
	Final (previous) structure:
	Cartesian Geometry (in Angstrom)
	    N    -1.0047256684  -1.4806517629   0.2995782703
	    C    -2.3190808960  -1.1228526540   0.4427394359
	    C    -2.6199887857   0.3931001665   0.3637505949
	    F    -3.6183800571   0.5677530250  -0.5288515677
	    F    -3.0729897718   0.7678648252   1.5903457346
	    C    -1.4523588969   1.3466155626  -0.0083135840
	    C    -0.1167739351   0.7515434710  -0.1150264353
	    C     0.9951701089   1.5594896035  -0.3738183263
	    C     2.2663587074   1.0261647454  -0.4854530854
	    C     2.4511841334  -0.3590316373  -0.3488797727
	    C     1.3498911455  -1.1775332674  -0.0732343673
	    C     0.0750109482  -0.6326341381   0.0361642010
	    S     4.0041697490  -1.1866101157  -0.4598928034
	    C     5.2275776393   0.1367663193  -0.6325608963
	    O    -3.2013544006  -1.9259637365   0.6382865647
	    O    -1.7000401265   2.5207011231  -0.1708806282
	    H     3.1013411817   1.6899328849  -0.6713585326
	    H     0.8351848772   2.6281398613  -0.4811781593
	    H    -0.8291782687  -2.4753982143   0.3763794772
	    H     1.4913352579  -2.2485586669   0.0521301815
	    H     5.5150849514   0.5480089701   0.3375313361
	    H     6.1064839571  -0.3420440727  -1.0719313190
	    H     4.9009681639   0.9194301597  -1.3183611325
	Saving final (previous) structure.
			--------------------------
			 OPTKING Finished Execution 
			--------------------------

    Final optimized geometry and variables:
    Molecular point group: c1
    Full point group: C1

    Geometry (in Angstrom), charge = 0, multiplicity = 1:

    N           -1.004725672355    -1.480651768682     0.299578271524
    C           -2.319080905112    -1.122852658436     0.442739437591
    C           -2.619988795994     0.393100167999     0.363750596305
    F           -3.618380071362     0.567753027261    -0.528851569743
    F           -3.072989783893     0.767864828252     1.590345740894
    C           -1.452358902563     1.346615567936    -0.008313584039
    C           -0.116773935556     0.751543473918    -0.115026435740
    C            0.995170112843     1.559489609659    -0.373818327762
    C            2.266358716335     1.026164749483    -0.485453087341
    C            2.451184143001    -0.359031638665    -0.348879774080
    C            1.349891150853    -1.177533272067    -0.073234367630
    C            0.075010948460    -0.632634140621     0.036164201123
    S            4.004169764771    -1.186610120383    -0.459892805165
    C            5.227577659821     0.136766319819    -0.632560898789
    O           -3.201354413152    -1.925963744085     0.638286567187
    O           -1.700040133215     2.520701133014    -0.170880628916
    H            3.101341193936     1.689932891551    -0.671358535272
    H            0.835184880527     2.628139871657    -0.481178161189
    H           -0.829178271912    -2.475398224023     0.376379478665
    H            1.491335263716    -2.248558675722     0.052130181691
    H            5.515084973104     0.548008972264     0.337531337434
    H            6.106483981089    -0.342044074060    -1.071931323188
    H            4.900968183206     0.919430163284    -1.318361137683

	Removing binary optimization data file.
	Cleaning optimization helper files.

    Psi4 stopped on: Tuesday, 22 June 2021 04:51AM
    Psi4 wall time for execution: 0:20:56.84

*** Psi4 exiting successfully. Buy a developer a beer!
