
    -----------------------------------------------------------------------
          Psi4: An Open-Source Ab Initio Electronic Structure Package
                               Psi4 1.3.2 release

                         Git: Rev {HEAD} ecbda83 


    R. M. Parrish, L. A. Burns, D. G. A. Smith, A. C. Simmonett,
    A. E. DePrince III, E. G. Hohenstein, U. Bozkaya, A. Yu. Sokolov,
    R. Di Remigio, R. M. Richard, J. F. Gonthier, A. M. James,
    H. R. McAlexander, A. Kumar, M. Saitow, X. Wang, B. P. Pritchard,
    P. Verma, H. F. Schaefer III, K. Patkowski, R. A. King, E. F. Valeev,
    F. A. Evangelista, J. M. Turney, T. D. Crawford, and C. D. Sherrill,
    J. Chem. Theory Comput. 13(7) pp 3185--3197 (2017).
    (doi: 10.1021/acs.jctc.7b00174)


                         Additional Contributions by
    P. Kraus, H. Kruse, M. H. Lechner, M. C. Schieber, R. A. Shaw,
    A. Alenaizan, R. Galvelis, Z. L. Glick, S. Lehtola, and J. P. Misiewicz

    -----------------------------------------------------------------------


    Psi4 started on: Tuesday, 22 June 2021 07:12AM

    Process ID: 31716
    Host:       cpu-spot-dy-c5n2xlarge-1
    PSIDATADIR: /fsx/users/francis/anaconda3/envs/poltype-dev/share/psi4
    Memory:     500.0 MiB
    Threads:    1
    
  ==> Input File <==

--------------------------------------------------------------------------
molecule { 
0 1
 N   -0.980165   -1.522224    0.162638
 C   -2.284360   -1.198203    0.427284
 C   -2.607054    0.313645    0.497609
 F   -3.544053    0.567892   -0.448947
 F   -3.155143    0.553228    1.713171
 C   -1.438796    1.316572    0.292003
 C   -0.114199    0.751914    0.019670
 C    0.981133    1.597734   -0.182002
 C    2.244126    1.095732   -0.439553
 C    2.434723   -0.293974   -0.504634
 C    1.350311   -1.152733   -0.293234
 C    0.083532   -0.638546   -0.039921
 S    3.989580   -1.069613   -0.793914
 C    5.156281    0.312351   -0.839164
 O   -3.146023   -2.029740    0.595055
 O   -1.682192    2.500912    0.364277
 H    3.067967    1.782025   -0.593983
 H    0.812636    2.669092   -0.130361
 H   -0.796493   -2.517358    0.116079
 H    1.499202   -2.229316   -0.326670
 H    4.973812    0.971664   -1.691215
 H    5.140003    0.879684    0.094715
 H    6.142571   -0.143032   -0.955002
}
memory 16GB
set_num_threads(8)
psi4_io.set_default_path("/scratch/Psi4-ligand")
set freeze_core True
E, wfn = energy('wb97x-d/6-311++g**',return_wfn=True)
oeprop(wfn,"WIBERG_LOWDIN_INDICES")
clean()
--------------------------------------------------------------------------

  Memory set to  14.901 GiB by Python driver.
  Threads set to 8 by Python driver.

*** tstart() called on cpu-spot-dy-c5n2xlarge-1
*** at Tue Jun 22 07:12:12 2021

   => Loading Basis Set <=

    Name: 6-311++G**
    Role: ORBITAL
    Keyword: BASIS
    atoms 1             entry N          line   140 file /fsx/users/francis/anaconda3/envs/poltype-dev/share/psi4/basis/6-311ppgss.gbs 
    atoms 2-3, 6-12, 14 entry C          line   119 file /fsx/users/francis/anaconda3/envs/poltype-dev/share/psi4/basis/6-311ppgss.gbs 
    atoms 4-5           entry F          line   182 file /fsx/users/francis/anaconda3/envs/poltype-dev/share/psi4/basis/6-311ppgss.gbs 
    atoms 13            entry S          line   419 file /fsx/users/francis/anaconda3/envs/poltype-dev/share/psi4/basis/6-311ppgss.gbs 
    atoms 15-16         entry O          line   161 file /fsx/users/francis/anaconda3/envs/poltype-dev/share/psi4/basis/6-311ppgss.gbs 
    atoms 17-23         entry H          line    42 file /fsx/users/francis/anaconda3/envs/poltype-dev/share/psi4/basis/6-311ppgss.gbs 


         ---------------------------------------------------------
                                   SCF
               by Justin Turney, Rob Parrish, Andy Simmonett
                          and Daniel G. A. Smith
                              RKS Reference
                        8 Threads,  15258 MiB Core
         ---------------------------------------------------------

  ==> Geometry <==

    Molecular point group: c1
    Full point group: C1

    Geometry (in Angstrom), charge = 0, multiplicity = 1:

       Center              X                  Y                   Z               Mass       
    ------------   -----------------  -----------------  -----------------  -----------------
         N           -0.980165135089    -1.522224021650     0.162637978497    14.003074004430
         C           -2.284360135089    -1.198203021650     0.427283978497    12.000000000000
         C           -2.607054135089     0.313644978350     0.497608978497    12.000000000000
         F           -3.544053135089     0.567891978350    -0.448947021503    18.998403162730
         F           -3.155143135089     0.553227978350     1.713170978497    18.998403162730
         C           -1.438796135089     1.316571978350     0.292002978497    12.000000000000
         C           -0.114199135089     0.751913978350     0.019669978497    12.000000000000
         C            0.981132864911     1.597733978350    -0.182002021503    12.000000000000
         C            2.244125864911     1.095731978350    -0.439553021503    12.000000000000
         C            2.434722864911    -0.293974021650    -0.504634021503    12.000000000000
         C            1.350310864911    -1.152733021650    -0.293234021503    12.000000000000
         C            0.083531864911    -0.638546021650    -0.039921021503    12.000000000000
         S            3.989579864911    -1.069613021650    -0.793914021503    31.972071174400
         C            5.156280864911     0.312350978350    -0.839164021503    12.000000000000
         O           -3.146023135089    -2.029740021650     0.595054978497    15.994914619570
         O           -1.682192135089     2.500911978350     0.364276978497    15.994914619570
         H            3.067966864911     1.782024978350    -0.593983021503     1.007825032230
         H            0.812635864911     2.669091978350    -0.130361021503     1.007825032230
         H           -0.796493135089    -2.517358021650     0.116078978497     1.007825032230
         H            1.499201864911    -2.229316021650    -0.326670021503     1.007825032230
         H            4.973811864911     0.971663978350    -1.691215021503     1.007825032230
         H            5.140002864911     0.879683978350     0.094714978497     1.007825032230
         H            6.142570864911    -0.143032021650    -0.955002021503     1.007825032230

  Running in c1 symmetry.

  Rotational constants: A =      0.03957  B =      0.00831  C =      0.00714 [cm^-1]
  Rotational constants: A =   1186.25223  B =    249.00749  C =    214.14450 [MHz]
  Nuclear repulsion = 1188.342776805019184

  Charge       = 0
  Multiplicity = 1
  Electrons    = 124
  Nalpha       = 62
  Nbeta        = 62

  ==> Algorithm <==

  SCF Algorithm Type is DF.
  DIIS enabled.
  MOM disabled.
  Fractional occupation disabled.
  Guess Type is SAD.
  Energy threshold   = 1.00e-06
  Density threshold  = 1.00e-06
  Integral threshold = 0.00e+00

  ==> Primary Basis <==

  Basis Set: 6-311++G**
    Blend: 6-311++G**
    Number of shells: 199
    Number of basis function: 409
    Number of Cartesian functions: 425
    Spherical Harmonics?: true
    Max angular momentum: 2

  ==> DFT Potential <==

   => Composite Functional: WB97X-D <= 

    wB97X-D Hyb-GGA Exchange-Correlation Functional

    J.-D. Chai and M. Head-Gordon, Phys. Chem. Chem. Phys. 10, 6615 (2008)

    Deriv               =              1
    GGA                 =           TRUE
    Meta                =          FALSE

    Exchange Hybrid     =           TRUE
    MP2 Hybrid          =          FALSE

   => Exchange-Correlation Functionals <=

    1.0000   wB97D range-separated functional

   => Exact (HF) Exchange <=

    0.7780            HF,LR [omega = 0.2000]
    0.2220               HF 

   => Molecular Quadrature <=

    Radial Scheme          =       TREUTLER
    Pruning Scheme         =           FLAT
    Nuclear Scheme         =       TREUTLER

    BS radius alpha        =              1
    Pruning alpha          =              1
    Radial Points          =             75
    Spherical Points       =            302
    Total Points           =         520865
    Total Blocks           =           3866
    Max Points             =            256
    Max Functions          =            324

   => WB97X-D: Empirical Dispersion <=

    Chai and Head-Gordon Dispersion Correction
    Chai, J.-D.; Head-Gordon, M. (2010), J. Chem. Phys., 132: 6615-6620

        s6 =       1.000000

   => Loading Basis Set <=

    Name: (6-311++G** AUX)
    Role: JKFIT
    Keyword: DF_BASIS_SCF
    atoms 1             entry N          line   224 file /fsx/users/francis/anaconda3/envs/poltype-dev/share/psi4/basis/aug-cc-pvtz-jkfit.gbs 
    atoms 2-3, 6-12, 14 entry C          line   162 file /fsx/users/francis/anaconda3/envs/poltype-dev/share/psi4/basis/aug-cc-pvtz-jkfit.gbs 
    atoms 4-5           entry F          line   348 file /fsx/users/francis/anaconda3/envs/poltype-dev/share/psi4/basis/aug-cc-pvtz-jkfit.gbs 
    atoms 13            entry S          line   730 file /fsx/users/francis/anaconda3/envs/poltype-dev/share/psi4/basis/aug-cc-pvtz-jkfit.gbs 
    atoms 15-16         entry O          line   286 file /fsx/users/francis/anaconda3/envs/poltype-dev/share/psi4/basis/aug-cc-pvtz-jkfit.gbs 
    atoms 17-23         entry H          line    70 file /fsx/users/francis/anaconda3/envs/poltype-dev/share/psi4/basis/aug-cc-pvtz-jkfit.gbs 

  ==> Pre-Iterations <==

   -------------------------------------------------------
    Irrep   Nso     Nmo     Nalpha   Nbeta   Ndocc  Nsocc
   -------------------------------------------------------
     A        409     409       0       0       0       0
   -------------------------------------------------------
    Total     409     409      62      62      62       0
   -------------------------------------------------------

  ==> Integral Setup <==

  ==> DiskDFJK: Density-Fitted J/K Matrices <==

    J tasked:                  Yes
    K tasked:                  Yes
    wK tasked:                 Yes
    Omega:               2.000E-01
    OpenMP threads:              8
    Integrals threads:           8
    Memory [MiB]:             7967
    Algorithm:                Core
    Integral Cache:           NONE
    Schwarz Cutoff:          1E-12
    Fitting Condition:       1E-10

   => Auxiliary Basis Set <=

  Basis Set: (6-311++G** AUX)
    Blend: AUG-CC-PVTZ-JKFIT
    Number of shells: 590
    Number of basis function: 2028
    Number of Cartesian functions: 2530
    Spherical Harmonics?: true
    Max angular momentum: 4

  Cached 100.0% of DFT collocation blocks in 3.395 [GiB].

  Minimum eigenvalue in the overlap matrix is 2.3160417051E-07.
  Using Symmetric Orthogonalization.

  SCF Guess: Superposition of Atomic Densities via on-the-fly atomic UHF.

  ==> Iterations <==

                           Total Energy        Delta E     RMS |[F,P]|

   @DF-RKS iter SAD: -1187.92026584986979   -1.18792e+03   0.00000e+00 
   @DF-RKS iter   1: -1187.71013541364209    2.10130e-01   2.91327e-03 DIIS
   @DF-RKS iter   2: -1187.75751882477493   -4.73834e-02   2.98441e-03 DIIS
   @DF-RKS iter   3: -1188.30546929342654   -5.47950e-01   6.55229e-04 DIIS
   @DF-RKS iter   4: -1188.32944754369169   -2.39783e-02   2.39621e-04 DIIS
   @DF-RKS iter   5: -1188.33351916993161   -4.07163e-03   6.23742e-05 DIIS
   @DF-RKS iter   6: -1188.33395356730125   -4.34397e-04   1.87293e-05 DIIS
   @DF-RKS iter   7: -1188.33400947888094   -5.59116e-05   7.96893e-06 DIIS
   @DF-RKS iter   8: -1188.33402577852280   -1.62996e-05   3.28623e-06 DIIS
   @DF-RKS iter   9: -1188.33402885069336   -3.07217e-06   1.48861e-06 DIIS
   @DF-RKS iter  10: -1188.33402919279706   -3.42104e-07   5.87166e-07 DIIS
  Energy and wave function converged.


  ==> Post-Iterations <==

    Orbital Energies [Eh]
    ---------------------

    Doubly Occupied:                                                      

       1A    -89.054234     2A    -24.839077     3A    -24.838792  
       4A    -19.269225     5A    -19.260198     6A    -14.516952  
       7A    -10.484847     8A    -10.436403     9A    -10.411194  
      10A    -10.391025    11A    -10.372123    12A    -10.341980  
      13A    -10.334764    14A    -10.331402    15A    -10.330991  
      16A    -10.324498    17A     -8.094873    18A     -6.044327  
      19A     -6.039919    20A     -6.034048    21A     -1.389275  
      22A     -1.327830    23A     -1.192247    24A     -1.180069  
      25A     -1.098449    26A     -1.006862    27A     -0.945353  
      28A     -0.906909    29A     -0.888641    30A     -0.868697  
      31A     -0.800335    32A     -0.765841    33A     -0.753520  
      34A     -0.745825    35A     -0.697425    36A     -0.684193  
      37A     -0.669894    38A     -0.646974    39A     -0.630261  
      40A     -0.593112    41A     -0.588181    42A     -0.569251  
      43A     -0.563892    44A     -0.558174    45A     -0.555803  
      46A     -0.555255    47A     -0.550156    48A     -0.535217  
      49A     -0.519625    50A     -0.516415    51A     -0.508027  
      52A     -0.498876    53A     -0.490495    54A     -0.488621  
      55A     -0.475739    56A     -0.443513    57A     -0.434850  
      58A     -0.399252    59A     -0.395342    60A     -0.364167  
      61A     -0.341820    62A     -0.320452  

    Virtual:                                                              

      63A     -0.043714    64A      0.012755    65A      0.025281  
      66A      0.033344    67A      0.044912    68A      0.053443  
      69A      0.061787    70A      0.064352    71A      0.071100  
      72A      0.072155    73A      0.075974    74A      0.087033  
      75A      0.097837    76A      0.099780    77A      0.103602  
      78A      0.105390    79A      0.108096    80A      0.120431  
      81A      0.126594    82A      0.130112    83A      0.133221  
      84A      0.135860    85A      0.141342    86A      0.149041  
      87A      0.151166    88A      0.159450    89A      0.163855  
      90A      0.165186    91A      0.168242    92A      0.172595  
      93A      0.175229    94A      0.176893    95A      0.182831  
      96A      0.184048    97A      0.193727    98A      0.195318  
      99A      0.197861   100A      0.204545   101A      0.207183  
     102A      0.208694   103A      0.213904   104A      0.215295  
     105A      0.218346   106A      0.228122   107A      0.229490  
     108A      0.234783   109A      0.240353   110A      0.246410  
     111A      0.251452   112A      0.255504   113A      0.263263  
     114A      0.265774   115A      0.270771   116A      0.276617  
     117A      0.278819   118A      0.285982   119A      0.289332  
     120A      0.291170   121A      0.299939   122A      0.305630  
     123A      0.308573   124A      0.314425   125A      0.316153  
     126A      0.323785   127A      0.331213   128A      0.335970  
     129A      0.341857   130A      0.344946   131A      0.349717  
     132A      0.356768   133A      0.359283   134A      0.364487  
     135A      0.369889   136A      0.373127   137A      0.377160  
     138A      0.381348   139A      0.389513   140A      0.392575  
     141A      0.401649   142A      0.405634   143A      0.408216  
     144A      0.414725   145A      0.419733   146A      0.428845  
     147A      0.431982   148A      0.436193   149A      0.445582  
     150A      0.448210   151A      0.457629   152A      0.468708  
     153A      0.471126   154A      0.480304   155A      0.483310  
     156A      0.504356   157A      0.518805   158A      0.527147  
     159A      0.536518   160A      0.545609   161A      0.548955  
     162A      0.562249   163A      0.585132   164A      0.587785  
     165A      0.604687   166A      0.610865   167A      0.618625  
     168A      0.627277   169A      0.635500   170A      0.638935  
     171A      0.643420   172A      0.655420   173A      0.660903  
     174A      0.670249   175A      0.676726   176A      0.695333  
     177A      0.696011   178A      0.703145   179A      0.717952  
     180A      0.737888   181A      0.743971   182A      0.751734  
     183A      0.752908   184A      0.765880   185A      0.770061  
     186A      0.771074   187A      0.785533   188A      0.788728  
     189A      0.801733   190A      0.818646   191A      0.828696  
     192A      0.844271   193A      0.850987   194A      0.862874  
     195A      0.871272   196A      0.876603   197A      0.886165  
     198A      0.903746   199A      0.921478   200A      0.936264  
     201A      0.941480   202A      0.947507   203A      0.955241  
     204A      0.971833   205A      0.977977   206A      0.988600  
     207A      1.005213   208A      1.007984   209A      1.015210  
     210A      1.018291   211A      1.048417   212A      1.050363  
     213A      1.061040   214A      1.076478   215A      1.100303  
     216A      1.109259   217A      1.114798   218A      1.133722  
     219A      1.149150   220A      1.157986   221A      1.171768  
     222A      1.175221   223A      1.195446   224A      1.205302  
     225A      1.213533   226A      1.221618   227A      1.242278  
     228A      1.262255   229A      1.263962   230A      1.292830  
     231A      1.296413   232A      1.309461   233A      1.321682  
     234A      1.333695   235A      1.365363   236A      1.391660  
     237A      1.413977   238A      1.466907   239A      1.474357  
     240A      1.482171   241A      1.497825   242A      1.500746  
     243A      1.522289   244A      1.545556   245A      1.554244  
     246A      1.566093   247A      1.577716   248A      1.592050  
     249A      1.597493   250A      1.608479   251A      1.610688  
     252A      1.629754   253A      1.638889   254A      1.645289  
     255A      1.655460   256A      1.668193   257A      1.673923  
     258A      1.696836   259A      1.698630   260A      1.707838  
     261A      1.723008   262A      1.770442   263A      1.774013  
     264A      1.785646   265A      1.795367   266A      1.806843  
     267A      1.822389   268A      1.833633   269A      1.862186  
     270A      1.863478   271A      1.879144   272A      1.895319  
     273A      1.914798   274A      1.943909   275A      1.950897  
     276A      1.954458   277A      1.989659   278A      1.996343  
     279A      1.998578   280A      2.020139   281A      2.031661  
     282A      2.033762   283A      2.048291   284A      2.065678  
     285A      2.082046   286A      2.085352   287A      2.092884  
     288A      2.126233   289A      2.161971   290A      2.177723  
     291A      2.196851   292A      2.214234   293A      2.227120  
     294A      2.244712   295A      2.257431   296A      2.302485  
     297A      2.314580   298A      2.329475   299A      2.336631  
     300A      2.375949   301A      2.433608   302A      2.478821  
     303A      2.517909   304A      2.521817   305A      2.539434  
     306A      2.550251   307A      2.572793   308A      2.596632  
     309A      2.614556   310A      2.640249   311A      2.670926  
     312A      2.723198   313A      2.746925   314A      2.780939  
     315A      2.782923   316A      2.791724   317A      2.806970  
     318A      2.829376   319A      2.838064   320A      2.840359  
     321A      2.860403   322A      2.884251   323A      2.905886  
     324A      2.912326   325A      2.928089   326A      2.940258  
     327A      2.967329   328A      2.973691   329A      3.001719  
     330A      3.042584   331A      3.048548   332A      3.056655  
     333A      3.086169   334A      3.093348   335A      3.103818  
     336A      3.135619   337A      3.163375   338A      3.202140  
     339A      3.296628   340A      3.301437   341A      3.333899  
     342A      3.364910   343A      3.413187   344A      3.428270  
     345A      3.430900   346A      3.493176   347A      3.535383  
     348A      3.543931   349A      3.605312   350A      3.634254  
     351A      3.655557   352A      3.691527   353A      3.711323  
     354A      3.785160   355A      3.804197   356A      3.809877  
     357A      3.846147   358A      3.852807   359A      3.858157  
     360A      3.904664   361A      3.915956   362A      3.952735  
     363A      3.977245   364A      4.006684   365A      4.029029  
     366A      4.078386   367A      4.117461   368A      4.193116  
     369A      4.246826   370A      4.311155   371A      4.370900  
     372A      4.531927   373A      4.827323   374A      4.892844  
     375A      4.916735   376A      5.000995   377A      5.148742  
     378A      5.154943   379A      5.213040   380A      5.332390  
     381A      5.343942   382A      5.841282   383A      5.886249  
     384A      6.438591   385A      6.470748   386A      6.539538  
     387A      6.584249   388A      6.671803   389A      6.867776  
     390A      8.096793   391A     17.434298   392A     17.624515  
     393A     17.659062   394A     23.634493   395A     23.747400  
     396A     23.971297   397A     24.004495   398A     24.017604  
     399A     24.036422   400A     24.040886   401A     24.135249  
     402A     24.191560   403A     24.277316   404A     35.760297  
     405A     50.145773   406A     50.164136   407A     66.892598  
     408A     66.976064   409A    189.359699  

    Final Occupation by Irrep:
              A 
    DOCC [    62 ]

  @DF-RKS Final Energy: -1188.33402919279706

   => Energetics <=

    Nuclear Repulsion Energy =           1188.3427768050191844
    One-Electron Energy =               -3991.6489719390056052
    Two-Electron Energy =                1704.7251066213243575
    DFT Exchange-Correlation Energy =     -89.7392206647460426
    Empirical Dispersion Energy =          -0.0137200153888310
    VV10 Nonlocal Energy =                  0.0000000000000000
    Total Energy =                      -1188.3340291927968337

Computation Completed


Properties will be evaluated at   0.000000,   0.000000,   0.000000 [a0]

Properties computed using the SCF density matrix

  Nuclear Dipole Moment: [e a0]
     X:    25.9412      Y:     0.2453      Z:    -4.4779

  Electronic Dipole Moment: [e a0]
     X:   -22.7120      Y:    -0.6089      Z:     3.9074

  Dipole Moment: [e a0]
     X:     3.2292      Y:    -0.3636      Z:    -0.5704     Total:     3.2993

  Dipole Moment: [D]
     X:     8.2078      Y:    -0.9242      Z:    -1.4499     Total:     8.3860


*** tstop() called on cpu-spot-dy-c5n2xlarge-1 at Tue Jun 22 07:13:41 2021
Module time:
	user time   =     643.98 seconds =      10.73 minutes
	system time =      10.35 seconds =       0.17 minutes
	total time  =         89 seconds =       1.48 minutes
Total time:
	user time   =     643.98 seconds =      10.73 minutes
	system time =      10.35 seconds =       0.17 minutes
	total time  =         89 seconds =       1.48 minutes


Properties will be evaluated at   0.000000,   0.000000,   0.000000 [a0]
OEProp: No title given, name of density matrix used for the following properties is 'SCF density'


  Wiberg Bond Indices using Orthogonal Lowdin Orbitals:

  Irrep: 1 Size: 23 x 23

                 1                   2                   3                   4                   5

    1     0.00000000000000     1.32020743072471     0.10111737098892     0.01336685755050     0.01300380699005
    2     1.32020743072471     0.00000000000000     0.88437450498509     0.11085652439920     0.11058479045619
    3     0.10111737098892     0.88437450498509     0.00000000000000     1.35898612237194     1.36189850830989
    4     0.01336685755050     0.11085652439920     1.35898612237194     0.00000000000000     0.13797074661136
    5     0.01300380699005     0.11058479045619     1.36189850830989     0.13797074661136     0.00000000000000
    6     0.03385406729739     0.07394485753548     0.89688734885296     0.10906290006673     0.10875582201102
    7     0.11653023907808     0.03546113645023     0.09946778509710     0.01348156206790     0.01320825026650
    8     0.01506325936508     0.00371772809240     0.01342038068809     0.00199886917691     0.00199768073417
    9     0.01439847999403     0.00535729774436     0.00253030868150     0.00037646216270     0.00037230890299
   10     0.01736174966503     0.00307270363299     0.00148857477438     0.00044844104776     0.00041985755545
   11     0.13415399724224     0.02686358919496     0.00431769348591     0.00059521633078     0.00057576015448
   12     1.19000453252238     0.09707923018769     0.03105569074349     0.00452965548092     0.00433886778281
   13     0.00285593138414     0.00103683857647     0.00069539932032     0.00029297668780     0.00027360784882
   14     0.00045284638940     0.00016551231566     0.00009536975232     0.00001917057006     0.00001844682251
   15     0.24826159543290     2.29098531919310     0.15067273370979     0.03900264032622     0.03965212025684
   16     0.00482699410332     0.01573163233149     0.15991419919341     0.04226681220381     0.04301929518609
   17     0.00070572112862     0.00022005143055     0.00047872942860     0.00006345302732     0.00006603450543
   18     0.00129214775330     0.00048875393399     0.00211312893075     0.00030852711774     0.00031652189109
   19     0.91332382085667     0.07325128425323     0.01370321257145     0.00168548166826     0.00171151146951
   20     0.02332791844256     0.00231952374190     0.00072732349880     0.00010890245411     0.00011216002252
   21     0.00008587317546     0.00003759708658     0.00003566088195     0.00001022962997     0.00000778371923
   22     0.00010350228237     0.00004317341076     0.00003416984930     0.00000778707367     0.00000919396906
   23     0.00007052692361     0.00002469223433     0.00001579637116     0.00000228328620     0.00000174851658

                 6                   7                   8                   9                  10

    1     0.03385406729739     0.11653023907808     0.01506325936508     0.01439847999403     0.01736174966503
    2     0.07394485753548     0.03546113645023     0.00371772809240     0.00535729774436     0.00307270363299
    3     0.89688734885296     0.09946778509710     0.01342038068809     0.00253030868150     0.00148857477438
    4     0.10906290006673     0.01348156206790     0.00199886917691     0.00037646216270     0.00044844104776
    5     0.10875582201102     0.01320825026650     0.00199768073417     0.00037230890299     0.00041985755545
    6     0.00000000000000     1.06902809567512     0.12140824314585     0.02058646855266     0.01517899359949
    7     1.06902809567512     0.00000000000000     1.34247553397953     0.13183246936188     0.10744603573533
    8     0.12140824314585     1.34247553397953     0.00000000000000     1.50339188521507     0.13592893427541
    9     0.02058646855266     0.13183246936188     1.50339188521507     0.00000000000000     1.37306538714984
   10     0.01517899359949     0.10744603573533     0.13592893427541     1.37306538714984     0.00000000000000
   11     0.01582823622705     0.11958122191706     0.12149060533037     0.12513571669867     1.41509260742300
   12     0.11431688983189     1.27291828506951     0.12382476172149     0.10722343420225     0.12983553373308
   13     0.00656351566127     0.02191420675879     0.02501950536603     0.14480079700363     1.30956502504494
   14     0.00032651409501     0.00170539470400     0.00464690133003     0.04904348192051     0.08414413537709
   15     0.01522268755227     0.00895540957965     0.00104818695347     0.00457249449070     0.00197812646230
   16     2.31223783736822     0.16625743292663     0.07619538645071     0.00630835316693     0.01639229953725
   17     0.00150048874606     0.01231925520518     0.08299275111805     0.85918078207864     0.07392779161542
   18     0.02027102993224     0.07691277086314     0.85207328068572     0.08061934004547     0.01215227294906
   19     0.00255791204703     0.01255259598267     0.00170925040049     0.00132517058131     0.00198231551332
   20     0.00169877649008     0.01150463502475     0.00556267284335     0.01255623233325     0.07584889961948
   21     0.00018885997906     0.00080133774180     0.00099286434974     0.01367661248372     0.01323362589205
   22     0.00017246173073     0.00080553617141     0.00112417892406     0.01466226066538     0.01496121976894
   23     0.00002927505752     0.00018078000176     0.00034096660838     0.00319139898645     0.01262352535097

                11                  12                  13                  14                  15

    1     0.13415399724224     1.19000453252238     0.00285593138414     0.00045284638940     0.24826159543290
    2     0.02686358919496     0.09707923018769     0.00103683857647     0.00016551231566     2.29098531919310
    3     0.00431769348591     0.03105569074349     0.00069539932032     0.00009536975232     0.15067273370979
    4     0.00059521633078     0.00452965548092     0.00029297668780     0.00001917057006     0.03900264032622
    5     0.00057576015448     0.00433886778281     0.00027360784882     0.00001844682251     0.03965212025684
    6     0.01582823622705     0.11431688983189     0.00656351566127     0.00032651409501     0.01522268755227
    7     0.11958122191706     1.27291828506951     0.02191420675879     0.00170539470400     0.00895540957965
    8     0.12149060533037     0.12382476172149     0.02501950536603     0.00464690133003     0.00104818695347
    9     0.12513571669867     0.10722343420225     0.14480079700363     0.04904348192051     0.00457249449070
   10     1.41509260742300     0.12983553373308     1.30956502504494     0.08414413537709     0.00197812646230
   11     0.00000000000000     1.39230741739027     0.18076333777603     0.01878918178464     0.01261239597723
   12     1.39230741739027     0.00000000000000     0.02580497609419     0.00311843050113     0.03050990220607
   13     0.18076333777603     0.02580497609419     0.00000000000000     1.24408015512594     0.00084959634765
   14     0.01878918178464     0.00311843050113     1.24408015512594     0.00000000000000     0.00009425554590
   15     0.01261239597723     0.03050990220607     0.00084959634765     0.00009425554590     0.00000000000000
   16     0.00481325711598     0.04164744089679     0.00691678594992     0.00026163801171     0.00535456990362
   17     0.01207649660159     0.00517791014039     0.02093105426206     0.02299395177119     0.00016681643719
   18     0.00529701587144     0.01195548749272     0.00217202601468     0.00045209006009     0.00019317784190
   19     0.02032428402024     0.06551291460112     0.00033720642303     0.00006798792032     0.02871390277940
   20     0.85053529314628     0.07804081052807     0.03194755729137     0.00254096034843     0.00067448441703
   21     0.00212208263322     0.00051954082466     0.06463074527168     0.94031176632912     0.00003238834395
   22     0.00214321989238     0.00058637146710     0.06307745543332     0.93898078776062     0.00003735216726
   23     0.00197074156937     0.00042918810964     0.07413102752408     0.94119616721256     0.00001027403024

                16                  17                  18                  19                  20

    1     0.00482699410332     0.00070572112862     0.00129214775330     0.91332382085667     0.02332791844256
    2     0.01573163233149     0.00022005143055     0.00048875393399     0.07325128425323     0.00231952374190
    3     0.15991419919341     0.00047872942860     0.00211312893075     0.01370321257145     0.00072732349880
    4     0.04226681220381     0.00006345302732     0.00030852711774     0.00168548166826     0.00010890245411
    5     0.04301929518609     0.00006603450543     0.00031652189109     0.00171151146951     0.00011216002252
    6     2.31223783736822     0.00150048874606     0.02027102993224     0.00255791204703     0.00169877649008
    7     0.16625743292663     0.01231925520518     0.07691277086314     0.01255259598267     0.01150463502475
    8     0.07619538645071     0.08299275111805     0.85207328068572     0.00170925040049     0.00556267284335
    9     0.00630835316693     0.85918078207864     0.08061934004547     0.00132517058131     0.01255623233325
   10     0.01639229953725     0.07392779161542     0.01215227294906     0.00198231551332     0.07584889961948
   11     0.00481325711598     0.01207649660159     0.00529701587144     0.02032428402024     0.85053529314628
   12     0.04164744089679     0.00517791014039     0.01195548749272     0.06551291460112     0.07804081052807
   13     0.00691678594992     0.02093105426206     0.00217202601468     0.00033720642303     0.03194755729137
   14     0.00026163801171     0.02299395177119     0.00045209006009     0.00006798792032     0.00254096034843
   15     0.00535456990362     0.00016681643719     0.00019317784190     0.02871390277940     0.00067448441703
   16     0.00000000000000     0.00038974167506     0.02137647838603     0.00051779790999     0.00060007752043
   17     0.00038974167506     0.00000000000000     0.01033363495729     0.00010560836781     0.00117491090890
   18     0.02137647838603     0.01033363495729     0.00000000000000     0.00060965764312     0.00047937319317
   19     0.00051779790999     0.00010560836781     0.00060965764312     0.00000000000000     0.00647711664720
   20     0.00060007752043     0.00117491090890     0.00047937319317     0.00647711664720     0.00000000000000
   21     0.00020625482941     0.00663450828410     0.00008131888074     0.00001227150364     0.00042631133386
   22     0.00020026963094     0.00637661537612     0.00008432561547     0.00001465079947     0.00038776642227
   23     0.00001451300221     0.00144409687790     0.00005446294177     0.00000870175362     0.00029212938289

                21                  22                  23

    1     0.00008587317546     0.00010350228237     0.00007052692361
    2     0.00003759708658     0.00004317341076     0.00002469223433
    3     0.00003566088195     0.00003416984930     0.00001579637116
    4     0.00001022962997     0.00000778707367     0.00000228328620
    5     0.00000778371923     0.00000919396906     0.00000174851658
    6     0.00018885997906     0.00017246173073     0.00002927505752
    7     0.00080133774180     0.00080553617141     0.00018078000176
    8     0.00099286434974     0.00112417892406     0.00034096660838
    9     0.01367661248372     0.01466226066538     0.00319139898645
   10     0.01323362589205     0.01496121976894     0.01262352535097
   11     0.00212208263322     0.00214321989238     0.00197074156937
   12     0.00051954082466     0.00058637146710     0.00042918810964
   13     0.06463074527168     0.06307745543332     0.07413102752408
   14     0.94031176632912     0.93898078776062     0.94119616721256
   15     0.00003238834395     0.00003735216726     0.00001027403024
   16     0.00020625482941     0.00020026963094     0.00001451300221
   17     0.00663450828410     0.00637661537612     0.00144409687790
   18     0.00008131888074     0.00008432561547     0.00005446294177
   19     0.00001227150364     0.00001465079947     0.00000870175362
   20     0.00042631133386     0.00038776642227     0.00029212938289
   21     0.00000000000000     0.03742202622826     0.04179941831188
   22     0.03742202622826     0.00000000000000     0.04186542789076
   23     0.04179941831188     0.04186542789076     0.00000000000000



  Atomic Valences: 

 #  #
 Irrep: 1
      1:  4.1643687
      2:  5.0558242
      3:  5.0840300
      4:  1.8354416
      5:  1.8383148
      6:  4.9396213
      7:  4.6353400
      8:  4.4364238
      9:  4.4742071
     10:  4.8161481
     11:  4.4673894
     12:  4.7307373
     13:  3.2286597
     14:  4.2535051
     15:  2.8796004
     16:  2.9254491
     17:  1.1192604
     18:  1.0996368
     19:  1.1465047
     20:  1.1073438
     21:  1.1232691
     22:  1.1230998
     23:  1.1196971


    Psi4 stopped on: Tuesday, 22 June 2021 07:13AM
    Psi4 wall time for execution: 0:01:28.96

*** Psi4 exiting successfully. Buy a developer a beer!
