
    -----------------------------------------------------------------------
          Psi4: An Open-Source Ab Initio Electronic Structure Package
                               Psi4 1.3.2 release

                         Git: Rev {HEAD} ecbda83 


    R. M. Parrish, L. A. Burns, D. G. A. Smith, A. C. Simmonett,
    A. E. DePrince III, E. G. Hohenstein, U. Bozkaya, A. Yu. Sokolov,
    R. Di Remigio, R. M. Richard, J. F. Gonthier, A. M. James,
    H. R. McAlexander, A. Kumar, M. Saitow, X. Wang, B. P. Pritchard,
    P. Verma, H. F. Schaefer III, K. Patkowski, R. A. King, E. F. Valeev,
    F. A. Evangelista, J. M. Turney, T. D. Crawford, and C. D. Sherrill,
    J. Chem. Theory Comput. 13(7) pp 3185--3197 (2017).
    (doi: 10.1021/acs.jctc.7b00174)


                         Additional Contributions by
    P. Kraus, H. Kruse, M. H. Lechner, M. C. Schieber, R. A. Shaw,
    A. Alenaizan, R. Galvelis, Z. L. Glick, S. Lehtola, and J. P. Misiewicz

    -----------------------------------------------------------------------


    Psi4 started on: Tuesday, 22 June 2021 07:46AM

    Process ID: 32156
    Host:       cpu-spot-dy-c5n2xlarge-1
    PSIDATADIR: /fsx/users/francis/anaconda3/envs/poltype-dev/share/psi4
    Memory:     500.0 MiB
    Threads:    1
    
  ==> Input File <==

--------------------------------------------------------------------------
molecule { 
0 1
 N   -0.964681   -1.544134    0.225212
 C   -2.233253   -1.232519    0.640458
 C   -2.575062    0.273342    0.564253
 F   -3.053614    0.483348   -0.709536
 F   -3.547829    0.559081    1.433852
 C   -1.380559    1.247499    0.730217
 C   -0.098206    0.736558    0.231930
 C    0.980478    1.601435    0.028119
 C    2.201962    1.136268   -0.428083
 C    2.367370   -0.234617   -0.681993
 C    1.302032   -1.115369   -0.460888
 C    0.074622   -0.637649   -0.015348
 S    3.871911   -0.965568   -1.235944
 C    5.044662    0.410935   -1.229094
 O   -3.044580   -2.062438    0.977246
 O   -1.561972    2.354060    1.185225
 H    3.011462    1.837605   -0.591381
 H    0.833585    2.657977    0.232015
 H   -0.760755   -2.535356    0.185827
 H    1.435394   -2.180028   -0.636998
 H    6.014976   -0.032612   -1.464157
 H    4.803524    1.156861   -1.990064
 H    5.107030    0.875931   -0.242134
}
memory 16GB
set_num_threads(8)
psi4_io.set_default_path("/scratch/Psi4-ligand")
set freeze_core True
E, wfn = energy('wb97x-d/6-311++g**',return_wfn=True)
oeprop(wfn,"WIBERG_LOWDIN_INDICES")
clean()
--------------------------------------------------------------------------

  Memory set to  14.901 GiB by Python driver.
  Threads set to 8 by Python driver.

*** tstart() called on cpu-spot-dy-c5n2xlarge-1
*** at Tue Jun 22 07:46:45 2021

   => Loading Basis Set <=

    Name: 6-311++G**
    Role: ORBITAL
    Keyword: BASIS
    atoms 1             entry N          line   140 file /fsx/users/francis/anaconda3/envs/poltype-dev/share/psi4/basis/6-311ppgss.gbs 
    atoms 2-3, 6-12, 14 entry C          line   119 file /fsx/users/francis/anaconda3/envs/poltype-dev/share/psi4/basis/6-311ppgss.gbs 
    atoms 4-5           entry F          line   182 file /fsx/users/francis/anaconda3/envs/poltype-dev/share/psi4/basis/6-311ppgss.gbs 
    atoms 13            entry S          line   419 file /fsx/users/francis/anaconda3/envs/poltype-dev/share/psi4/basis/6-311ppgss.gbs 
    atoms 15-16         entry O          line   161 file /fsx/users/francis/anaconda3/envs/poltype-dev/share/psi4/basis/6-311ppgss.gbs 
    atoms 17-23         entry H          line    42 file /fsx/users/francis/anaconda3/envs/poltype-dev/share/psi4/basis/6-311ppgss.gbs 


         ---------------------------------------------------------
                                   SCF
               by Justin Turney, Rob Parrish, Andy Simmonett
                          and Daniel G. A. Smith
                              RKS Reference
                        8 Threads,  15258 MiB Core
         ---------------------------------------------------------

  ==> Geometry <==

    Molecular point group: c1
    Full point group: C1

    Geometry (in Angstrom), charge = 0, multiplicity = 1:

       Center              X                  Y                   Z               Mass       
    ------------   -----------------  -----------------  -----------------  -----------------
         N           -0.964680940798    -1.544134121072     0.225211791827    14.003074004430
         C           -2.233252940798    -1.232519121072     0.640457791827    12.000000000000
         C           -2.575061940798     0.273341878928     0.564252791827    12.000000000000
         F           -3.053613940798     0.483347878928    -0.709536208173    18.998403162730
         F           -3.547828940798     0.559080878928     1.433851791827    18.998403162730
         C           -1.380558940798     1.247498878928     0.730216791827    12.000000000000
         C           -0.098205940798     0.736557878928     0.231929791827    12.000000000000
         C            0.980478059202     1.601434878928     0.028118791827    12.000000000000
         C            2.201962059202     1.136267878928    -0.428083208173    12.000000000000
         C            2.367370059202    -0.234617121072    -0.681993208173    12.000000000000
         C            1.302032059202    -1.115369121072    -0.460888208173    12.000000000000
         C            0.074622059202    -0.637649121072    -0.015348208173    12.000000000000
         S            3.871911059202    -0.965568121072    -1.235944208173    31.972071174400
         C            5.044662059202     0.410934878928    -1.229094208173    12.000000000000
         O           -3.044579940798    -2.062438121072     0.977245791827    15.994914619570
         O           -1.561971940798     2.354059878928     1.185224791827    15.994914619570
         H            3.011462059202     1.837604878928    -0.591381208173     1.007825032230
         H            0.833585059202     2.657976878928     0.232014791827     1.007825032230
         H           -0.760754940798    -2.535356121072     0.185826791827     1.007825032230
         H            1.435394059202    -2.180028121072    -0.636998208173     1.007825032230
         H            6.014976059202    -0.032612121072    -1.464157208173     1.007825032230
         H            4.803524059202     1.156860878928    -1.990064208173     1.007825032230
         H            5.107030059202     0.875930878928    -0.242134208173     1.007825032230

  Running in c1 symmetry.

  Rotational constants: A =      0.03957  B =      0.00841  C =      0.00727 [cm^-1]
  Rotational constants: A =   1186.38145  B =    252.08976  C =    218.08023 [MHz]
  Nuclear repulsion = 1191.800720376656500

  Charge       = 0
  Multiplicity = 1
  Electrons    = 124
  Nalpha       = 62
  Nbeta        = 62

  ==> Algorithm <==

  SCF Algorithm Type is DF.
  DIIS enabled.
  MOM disabled.
  Fractional occupation disabled.
  Guess Type is SAD.
  Energy threshold   = 1.00e-06
  Density threshold  = 1.00e-06
  Integral threshold = 0.00e+00

  ==> Primary Basis <==

  Basis Set: 6-311++G**
    Blend: 6-311++G**
    Number of shells: 199
    Number of basis function: 409
    Number of Cartesian functions: 425
    Spherical Harmonics?: true
    Max angular momentum: 2

  ==> DFT Potential <==

   => Composite Functional: WB97X-D <= 

    wB97X-D Hyb-GGA Exchange-Correlation Functional

    J.-D. Chai and M. Head-Gordon, Phys. Chem. Chem. Phys. 10, 6615 (2008)

    Deriv               =              1
    GGA                 =           TRUE
    Meta                =          FALSE

    Exchange Hybrid     =           TRUE
    MP2 Hybrid          =          FALSE

   => Exchange-Correlation Functionals <=

    1.0000   wB97D range-separated functional

   => Exact (HF) Exchange <=

    0.7780            HF,LR [omega = 0.2000]
    0.2220               HF 

   => Molecular Quadrature <=

    Radial Scheme          =       TREUTLER
    Pruning Scheme         =           FLAT
    Nuclear Scheme         =       TREUTLER

    BS radius alpha        =              1
    Pruning alpha          =              1
    Radial Points          =             75
    Spherical Points       =            302
    Total Points           =         520866
    Total Blocks           =           3876
    Max Points             =            256
    Max Functions          =            324

   => WB97X-D: Empirical Dispersion <=

    Chai and Head-Gordon Dispersion Correction
    Chai, J.-D.; Head-Gordon, M. (2010), J. Chem. Phys., 132: 6615-6620

        s6 =       1.000000

   => Loading Basis Set <=

    Name: (6-311++G** AUX)
    Role: JKFIT
    Keyword: DF_BASIS_SCF
    atoms 1             entry N          line   224 file /fsx/users/francis/anaconda3/envs/poltype-dev/share/psi4/basis/aug-cc-pvtz-jkfit.gbs 
    atoms 2-3, 6-12, 14 entry C          line   162 file /fsx/users/francis/anaconda3/envs/poltype-dev/share/psi4/basis/aug-cc-pvtz-jkfit.gbs 
    atoms 4-5           entry F          line   348 file /fsx/users/francis/anaconda3/envs/poltype-dev/share/psi4/basis/aug-cc-pvtz-jkfit.gbs 
    atoms 13            entry S          line   730 file /fsx/users/francis/anaconda3/envs/poltype-dev/share/psi4/basis/aug-cc-pvtz-jkfit.gbs 
    atoms 15-16         entry O          line   286 file /fsx/users/francis/anaconda3/envs/poltype-dev/share/psi4/basis/aug-cc-pvtz-jkfit.gbs 
    atoms 17-23         entry H          line    70 file /fsx/users/francis/anaconda3/envs/poltype-dev/share/psi4/basis/aug-cc-pvtz-jkfit.gbs 

  ==> Pre-Iterations <==

   -------------------------------------------------------
    Irrep   Nso     Nmo     Nalpha   Nbeta   Ndocc  Nsocc
   -------------------------------------------------------
     A        409     409       0       0       0       0
   -------------------------------------------------------
    Total     409     409      62      62      62       0
   -------------------------------------------------------

  ==> Integral Setup <==

  ==> DiskDFJK: Density-Fitted J/K Matrices <==

    J tasked:                  Yes
    K tasked:                  Yes
    wK tasked:                 Yes
    Omega:               2.000E-01
    OpenMP threads:              8
    Integrals threads:           8
    Memory [MiB]:             7963
    Algorithm:                Core
    Integral Cache:           NONE
    Schwarz Cutoff:          1E-12
    Fitting Condition:       1E-10

   => Auxiliary Basis Set <=

  Basis Set: (6-311++G** AUX)
    Blend: AUG-CC-PVTZ-JKFIT
    Number of shells: 590
    Number of basis function: 2028
    Number of Cartesian functions: 2530
    Spherical Harmonics?: true
    Max angular momentum: 4

  Cached 100.0% of DFT collocation blocks in 3.399 [GiB].

  Minimum eigenvalue in the overlap matrix is 2.5061801753E-07.
  Using Symmetric Orthogonalization.

  SCF Guess: Superposition of Atomic Densities via on-the-fly atomic UHF.

  ==> Iterations <==

                           Total Energy        Delta E     RMS |[F,P]|

   @DF-RKS iter SAD: -1187.92690673830225   -1.18793e+03   0.00000e+00 
   @DF-RKS iter   1: -1187.71550000182856    2.11407e-01   2.90375e-03 DIIS
   @DF-RKS iter   2: -1187.76745336613726   -5.19534e-02   2.96042e-03 DIIS
   @DF-RKS iter   3: -1188.30710311324856   -5.39650e-01   6.52371e-04 DIIS
   @DF-RKS iter   4: -1188.33083493327490   -2.37318e-02   2.38229e-04 DIIS
   @DF-RKS iter   5: -1188.33484886910628   -4.01394e-03   6.25098e-05 DIIS
   @DF-RKS iter   6: -1188.33527872075319   -4.29852e-04   1.91509e-05 DIIS
   @DF-RKS iter   7: -1188.33533438594054   -5.56652e-05   8.08981e-06 DIIS
   @DF-RKS iter   8: -1188.33535067941898   -1.62935e-05   3.30041e-06 DIIS
   @DF-RKS iter   9: -1188.33535380112562   -3.12171e-06   1.47822e-06 DIIS
   @DF-RKS iter  10: -1188.33535414586026   -3.44735e-07   5.73113e-07 DIIS
  Energy and wave function converged.


  ==> Post-Iterations <==

    Orbital Energies [Eh]
    ---------------------

    Doubly Occupied:                                                      

       1A    -89.052959     2A    -24.841389     3A    -24.840101  
       4A    -19.271795     5A    -19.262197     6A    -14.515324  
       7A    -10.484709     8A    -10.436882     9A    -10.412086  
      10A    -10.389730    11A    -10.370730    12A    -10.340982  
      13A    -10.334361    14A    -10.330793    15A    -10.329996  
      16A    -10.323619    17A     -8.093614    18A     -6.043075  
      19A     -6.038666    20A     -6.032776    21A     -1.390623  
      22A     -1.329192    23A     -1.193046    24A     -1.181823  
      25A     -1.097760    26A     -1.005742    27A     -0.944696  
      28A     -0.907715    29A     -0.888067    30A     -0.868803  
      31A     -0.799057    32A     -0.765375    33A     -0.753781  
      34A     -0.745016    35A     -0.697432    36A     -0.681768  
      37A     -0.670803    38A     -0.645690    39A     -0.630444  
      40A     -0.593309    41A     -0.588443    42A     -0.570977  
      43A     -0.564260    44A     -0.559976    45A     -0.557598  
      46A     -0.551101    47A     -0.548316    48A     -0.535270  
      49A     -0.521032    50A     -0.514899    51A     -0.510192  
      52A     -0.499221    53A     -0.492819    54A     -0.487964  
      55A     -0.475720    56A     -0.443588    57A     -0.433741  
      58A     -0.399100    59A     -0.396032    60A     -0.365191  
      61A     -0.341205    62A     -0.319387  

    Virtual:                                                              

      63A     -0.041909    64A      0.013431    65A      0.025850  
      66A      0.034000    67A      0.045240    68A      0.053077  
      69A      0.062141    70A      0.064848    71A      0.071105  
      72A      0.072373    73A      0.076267    74A      0.087624  
      75A      0.097717    76A      0.100327    77A      0.103668  
      78A      0.105141    79A      0.108654    80A      0.121512  
      81A      0.126158    82A      0.127790    83A      0.134536  
      84A      0.134711    85A      0.144231    86A      0.149334  
      87A      0.152310    88A      0.154691    89A      0.162987  
      90A      0.164792    91A      0.169715    92A      0.171455  
      93A      0.174997    94A      0.179351    95A      0.183409  
      96A      0.185997    97A      0.189198    98A      0.193688  
      99A      0.197362   100A      0.203561   101A      0.207180  
     102A      0.210417   103A      0.212956   104A      0.214932  
     105A      0.216843   106A      0.224741   107A      0.231507  
     108A      0.233306   109A      0.238048   110A      0.248457  
     111A      0.251379   112A      0.256734   113A      0.259136  
     114A      0.269180   115A      0.270030   116A      0.273523  
     117A      0.278337   118A      0.282642   119A      0.286864  
     120A      0.288923   121A      0.296535   122A      0.298104  
     123A      0.309814   124A      0.313087   125A      0.316063  
     126A      0.319466   127A      0.325135   128A      0.326531  
     129A      0.337319   130A      0.344050   131A      0.348100  
     132A      0.354365   133A      0.358856   134A      0.365311  
     135A      0.368841   136A      0.375332   137A      0.376597  
     138A      0.381692   139A      0.386863   140A      0.391541  
     141A      0.401474   142A      0.401869   143A      0.408844  
     144A      0.415071   145A      0.422074   146A      0.433591  
     147A      0.437547   148A      0.443788   149A      0.450455  
     150A      0.461591   151A      0.464288   152A      0.467291  
     153A      0.474820   154A      0.481640   155A      0.490762  
     156A      0.496943   157A      0.505795   158A      0.521778  
     159A      0.529211   160A      0.541126   161A      0.549738  
     162A      0.561042   163A      0.565014   164A      0.575885  
     165A      0.585660   166A      0.601902   167A      0.610357  
     168A      0.621671   169A      0.631168   170A      0.642975  
     171A      0.655193   172A      0.657974   173A      0.664463  
     174A      0.671877   175A      0.676711   176A      0.697504  
     177A      0.706833   178A      0.720155   179A      0.726700  
     180A      0.730657   181A      0.748374   182A      0.749808  
     183A      0.753067   184A      0.756491   185A      0.768159  
     186A      0.770878   187A      0.782222   188A      0.792157  
     189A      0.807660   190A      0.811727   191A      0.816275  
     192A      0.836969   193A      0.846158   194A      0.853315  
     195A      0.862313   196A      0.873300   197A      0.880183  
     198A      0.888523   199A      0.906307   200A      0.925036  
     201A      0.935855   202A      0.946340   203A      0.956961  
     204A      0.962865   205A      0.969785   206A      0.982794  
     207A      0.996249   208A      1.005608   209A      1.008232  
     210A      1.033665   211A      1.042696   212A      1.051615  
     213A      1.074784   214A      1.081284   215A      1.097399  
     216A      1.103467   217A      1.123230   218A      1.125850  
     219A      1.154965   220A      1.167811   221A      1.175189  
     222A      1.182563   223A      1.203737   224A      1.210058  
     225A      1.229227   226A      1.235100   227A      1.258214  
     228A      1.268675   229A      1.277812   230A      1.284798  
     231A      1.297867   232A      1.329902   233A      1.336784  
     234A      1.342392   235A      1.357674   236A      1.383165  
     237A      1.396717   238A      1.441097   239A      1.486581  
     240A      1.499219   241A      1.507803   242A      1.528165  
     243A      1.541146   244A      1.546800   245A      1.557906  
     246A      1.562204   247A      1.574665   248A      1.592253  
     249A      1.595214   250A      1.603436   251A      1.613819  
     252A      1.622514   253A      1.628678   254A      1.643431  
     255A      1.651298   256A      1.670001   257A      1.680146  
     258A      1.696286   259A      1.715011   260A      1.726405  
     261A      1.734067   262A      1.758608   263A      1.769422  
     264A      1.782029   265A      1.786765   266A      1.801800  
     267A      1.814200   268A      1.830833   269A      1.834651  
     270A      1.850175   271A      1.871444   272A      1.878722  
     273A      1.880954   274A      1.932380   275A      1.945690  
     276A      1.962059   277A      1.991711   278A      1.996784  
     279A      1.998048   280A      2.021631   281A      2.029583  
     282A      2.043495   283A      2.062526   284A      2.082036  
     285A      2.084869   286A      2.094720   287A      2.120345  
     288A      2.137330   289A      2.160420   290A      2.169675  
     291A      2.189929   292A      2.194495   293A      2.229970  
     294A      2.239203   295A      2.251216   296A      2.281204  
     297A      2.311759   298A      2.323380   299A      2.341406  
     300A      2.356616   301A      2.423271   302A      2.487869  
     303A      2.505067   304A      2.521993   305A      2.539131  
     306A      2.554407   307A      2.575056   308A      2.598412  
     309A      2.610398   310A      2.639521   311A      2.666774  
     312A      2.719553   313A      2.753472   314A      2.774897  
     315A      2.786923   316A      2.805772   317A      2.808941  
     318A      2.823759   319A      2.847085   320A      2.847714  
     321A      2.859590   322A      2.893165   323A      2.899722  
     324A      2.905139   325A      2.928912   326A      2.937604  
     327A      2.972648   328A      2.980825   329A      3.017660  
     330A      3.029842   331A      3.047467   332A      3.071159  
     333A      3.080065   334A      3.095140   335A      3.111055  
     336A      3.144215   337A      3.166259   338A      3.201140  
     339A      3.289024   340A      3.291589   341A      3.331897  
     342A      3.369732   343A      3.408256   344A      3.430089  
     345A      3.438525   346A      3.490200   347A      3.530888  
     348A      3.553240   349A      3.592896   350A      3.630796  
     351A      3.647118   352A      3.684090   353A      3.700348  
     354A      3.760035   355A      3.804686   356A      3.810494  
     357A      3.845349   358A      3.857563   359A      3.871577  
     360A      3.895209   361A      3.932439   362A      3.948491  
     363A      3.965923   364A      4.001615   365A      4.024749  
     366A      4.083677   367A      4.154690   368A      4.195338  
     369A      4.244627   370A      4.270719   371A      4.350785  
     372A      4.495239   373A      4.821164   374A      4.889575  
     375A      4.916330   376A      5.047163   377A      5.166893  
     378A      5.173509   379A      5.178171   380A      5.311098  
     381A      5.320693   382A      5.829580   383A      5.873289  
     384A      6.486519   385A      6.503669   386A      6.521526  
     387A      6.536337   388A      6.650565   389A      6.906176  
     390A      8.096964   391A     17.436275   392A     17.624402  
     393A     17.660080   394A     23.632352   395A     23.746872  
     396A     23.966958   397A     24.001650   398A     24.018553  
     399A     24.031739   400A     24.035647   401A     24.134292  
     402A     24.190382   403A     24.276694   404A     35.752183  
     405A     50.129929   406A     50.146588   407A     66.918993  
     408A     66.960410   409A    189.359738  

    Final Occupation by Irrep:
              A 
    DOCC [    62 ]

  @DF-RKS Final Energy: -1188.33535414586026

   => Energetics <=

    Nuclear Repulsion Energy =           1191.8007203766564999
    One-Electron Energy =               -3998.5755821932684739
    Two-Electron Energy =                1708.1911142720173302
    DFT Exchange-Correlation Energy =     -89.7377512942326518
    Empirical Dispersion Energy =          -0.0138553070330104
    VV10 Nonlocal Energy =                  0.0000000000000000
    Total Energy =                      -1188.3353541458602649

Computation Completed


Properties will be evaluated at   0.000000,   0.000000,   0.000000 [a0]

Properties computed using the SCF density matrix

  Nuclear Dipole Moment: [e a0]
     X:    25.4771      Y:     0.6661      Z:    -4.9312

  Electronic Dipole Moment: [e a0]
     X:   -22.4236      Y:    -0.9429      Z:     4.1582

  Dipole Moment: [e a0]
     X:     3.0535      Y:    -0.2769      Z:    -0.7730     Total:     3.1620

  Dipole Moment: [D]
     X:     7.7612      Y:    -0.7037      Z:    -1.9648     Total:     8.0369


*** tstop() called on cpu-spot-dy-c5n2xlarge-1 at Tue Jun 22 07:48:13 2021
Module time:
	user time   =     634.60 seconds =      10.58 minutes
	system time =      10.48 seconds =       0.17 minutes
	total time  =         88 seconds =       1.47 minutes
Total time:
	user time   =     634.60 seconds =      10.58 minutes
	system time =      10.48 seconds =       0.17 minutes
	total time  =         88 seconds =       1.47 minutes


Properties will be evaluated at   0.000000,   0.000000,   0.000000 [a0]
OEProp: No title given, name of density matrix used for the following properties is 'SCF density'


  Wiberg Bond Indices using Orthogonal Lowdin Orbitals:

  Irrep: 1 Size: 23 x 23

                 1                   2                   3                   4                   5

    1     0.00000000000000     1.31444200009695     0.10264385937007     0.02308789621581     0.01072197413745
    2     1.31444200009695     0.00000000000000     0.88346550772677     0.11215319154237     0.10649801051958
    3     0.10264385937007     0.88346550772677     0.00000000000000     1.30970065648509     1.40577449673534
    4     0.02308789621581     0.11215319154237     1.30970065648509     0.00000000000000     0.13690108634764
    5     0.01072197413745     0.10649801051958     1.40577449673534     0.13690108634764     0.00000000000000
    6     0.03498693730526     0.07679341039394     0.89784090248592     0.11281803302491     0.10360796700247
    7     0.11670324054409     0.03627391490203     0.10189360069752     0.02257900712514     0.01181625962502
    8     0.01518754911856     0.00385903367698     0.01414958382916     0.00330269949761     0.00208275091902
    9     0.01455793183848     0.00524036099973     0.00262422271697     0.00064865047891     0.00043280214366
   10     0.01720164498493     0.00305315559039     0.00158975185089     0.00123493389583     0.00024706186472
   11     0.13382874161539     0.02654205916328     0.00459270401539     0.00127096604862     0.00043488421291
   12     1.18524132535586     0.09766026129468     0.03322496696593     0.01168678685478     0.00375763987410
   13     0.00283683206772     0.00103324653622     0.00067700054007     0.00065049414885     0.00011105392495
   14     0.00045245945435     0.00016516907892     0.00009292900182     0.00002739873729     0.00001585434142
   15     0.24461683817449     2.29781789933904     0.15034913604328     0.02812934596161     0.04361424523641
   16     0.00450807141280     0.01773343302728     0.15829691213811     0.03118819189385     0.04590323480408
   17     0.00071045824894     0.00022144874591     0.00047886957043     0.00005258660164     0.00008651370153
   18     0.00128363690940     0.00049154223186     0.00209389423925     0.00033662950537     0.00040869444163
   19     0.91445584942385     0.07266569510359     0.01391389778553     0.00154138399193     0.00206341870892
   20     0.02317589704304     0.00229764734357     0.00074894839932     0.00010706116430     0.00012428065793
   21     0.00006981161305     0.00002509973384     0.00001446290465     0.00000214659523     0.00000234849338
   22     0.00008573056536     0.00003829848010     0.00003248726478     0.00001730283532     0.00000474312486
   23     0.00010487039853     0.00004217443541     0.00003547106639     0.00001703879468     0.00000621723185

                 6                   7                   8                   9                  10

    1     0.03498693730526     0.11670324054409     0.01518754911856     0.01455793183848     0.01720164498493
    2     0.07679341039394     0.03627391490203     0.00385903367698     0.00524036099973     0.00305315559039
    3     0.89784090248592     0.10189360069752     0.01414958382916     0.00262422271697     0.00158975185089
    4     0.11281803302491     0.02257900712514     0.00330269949761     0.00064865047891     0.00123493389583
    5     0.10360796700247     0.01181625962502     0.00208275091902     0.00043280214366     0.00024706186472
    6     0.00000000000000     1.05823455438409     0.12047983643108     0.01997351459228     0.01474668014001
    7     1.05823455438409     0.00000000000000     1.34926111391581     0.13222989364888     0.10842120503303
    8     0.12047983643108     1.34926111391581     0.00000000000000     1.49785863308194     0.13540072675124
    9     0.01997351459228     0.13222989364888     1.49785863308194     0.00000000000000     1.37686482304109
   10     0.01474668014001     0.10842120503303     0.13540072675124     1.37686482304109     0.00000000000000
   11     0.01588850628094     0.11969747458653     0.12165915635045     0.12511240805897     1.41320683003425
   12     0.11381686893190     1.27137310394926     0.12365261478176     0.10833472361147     0.13001445909899
   13     0.00619152602933     0.02203783856917     0.02474633682497     0.14526134571362     1.30784478704288
   14     0.00032356274354     0.00171645010937     0.00466806528624     0.04913683977723     0.08412019180308
   15     0.01688153795760     0.00877673863871     0.00110737871069     0.00432970823602     0.00194580470555
   16     2.32372474968769     0.16329978352831     0.07285948939319     0.00612387587167     0.01534729757612
   17     0.00149068079607     0.01229212147917     0.08277524689406     0.85932341039616     0.07401320996345
   18     0.02015192482929     0.07725115718209     0.85310065959638     0.08045521694699     0.01216274208694
   19     0.00270954937629     0.01272212598289     0.00170997625467     0.00140288820246     0.00195187894023
   20     0.00172218314252     0.01149119382994     0.00556228833743     0.01254073492933     0.07578896873413
   21     0.00003229534431     0.00018589475111     0.00034301861218     0.00320043136853     0.01262161266010
   22     0.00018671485075     0.00078753361460     0.00092227709358     0.01308142327309     0.01279093106586
   23     0.00015897545022     0.00082670420008     0.00121421385680     0.01540763028438     0.01545927181919

                11                  12                  13                  14                  15

    1     0.13382874161539     1.18524132535586     0.00283683206772     0.00045245945435     0.24461683817449
    2     0.02654205916328     0.09766026129468     0.00103324653622     0.00016516907892     2.29781789933904
    3     0.00459270401539     0.03322496696593     0.00067700054007     0.00009292900182     0.15034913604328
    4     0.00127096604862     0.01168678685478     0.00065049414885     0.00002739873729     0.02812934596161
    5     0.00043488421291     0.00375763987410     0.00011105392495     0.00001585434142     0.04361424523641
    6     0.01588850628094     0.11381686893190     0.00619152602933     0.00032356274354     0.01688153795760
    7     0.11969747458653     1.27137310394926     0.02203783856917     0.00171645010937     0.00877673863871
    8     0.12165915635045     0.12365261478176     0.02474633682497     0.00466806528624     0.00110737871069
    9     0.12511240805897     0.10833472361147     0.14526134571362     0.04913683977723     0.00432970823602
   10     1.41320683003425     0.13001445909899     1.30784478704288     0.08412019180308     0.00194580470555
   11     0.00000000000000     1.39508151229530     0.18024134937437     0.01878135047451     0.01227369249057
   12     1.39508151229530     0.00000000000000     0.02563190958188     0.00311609606298     0.03042263660807
   13     0.18024134937437     0.02563190958188     0.00000000000000     1.24461541590490     0.00084274558263
   14     0.01878135047451     0.00311609606298     1.24461541590490     0.00000000000000     0.00009257471053
   15     0.01227369249057     0.03042263660807     0.00084274558263     0.00009257471053     0.00000000000000
   16     0.00485221284047     0.04036594601438     0.00642609614064     0.00025473863080     0.00681384803964
   17     0.01206681818363     0.00520829981961     0.02099545669607     0.02301768227774     0.00015948304026
   18     0.00531340879597     0.01198297436648     0.00217468647964     0.00045310004515     0.00018645340508
   19     0.02012813926703     0.06527263365740     0.00033728797444     0.00006784089997     0.02782570882155
   20     0.85072126645508     0.07811563001328     0.03193677277907     0.00253847768887     0.00066294186336
   21     0.00196988497713     0.00043007495647     0.07421971799615     0.94121261798951     0.00000947819589
   22     0.00210779307603     0.00052203617666     0.06519829997337     0.94088920109350     0.00003057368710
   23     0.00216002690317     0.00058704838957     0.06274777614700     0.93826600308646     0.00003653733028

                16                  17                  18                  19                  20

    1     0.00450807141280     0.00071045824894     0.00128363690940     0.91445584942385     0.02317589704304
    2     0.01773343302728     0.00022144874591     0.00049154223186     0.07266569510359     0.00229764734357
    3     0.15829691213811     0.00047886957043     0.00209389423925     0.01391389778553     0.00074894839932
    4     0.03118819189385     0.00005258660164     0.00033662950537     0.00154138399193     0.00010706116430
    5     0.04590323480408     0.00008651370153     0.00040869444163     0.00206341870892     0.00012428065793
    6     2.32372474968769     0.00149068079607     0.02015192482929     0.00270954937629     0.00172218314252
    7     0.16329978352831     0.01229212147917     0.07725115718209     0.01272212598289     0.01149119382994
    8     0.07285948939319     0.08277524689406     0.85310065959638     0.00170997625467     0.00556228833743
    9     0.00612387587167     0.85932341039616     0.08045521694699     0.00140288820246     0.01254073492933
   10     0.01534729757612     0.07401320996345     0.01216274208694     0.00195187894023     0.07578896873413
   11     0.00485221284047     0.01206681818363     0.00531340879597     0.02012813926703     0.85072126645508
   12     0.04036594601438     0.00520829981961     0.01198297436648     0.06527263365740     0.07811563001328
   13     0.00642609614064     0.02099545669607     0.00217468647964     0.00033728797444     0.03193677277907
   14     0.00025473863080     0.02301768227774     0.00045310004515     0.00006784089997     0.00253847768887
   15     0.00681384803964     0.00015948304026     0.00018645340508     0.02782570882155     0.00066294186336
   16     0.00000000000000     0.00037482660484     0.01923196095855     0.00049529360106     0.00060356312105
   17     0.00037482660484     0.00000000000000     0.01031397508274     0.00010741896338     0.00117319242531
   18     0.01923196095855     0.01031397508274     0.00000000000000     0.00060283722296     0.00048078773716
   19     0.00049529360106     0.00010741896338     0.00060283722296     0.00000000000000     0.00630350237491
   20     0.00060356312105     0.00117319242531     0.00048078773716     0.00630350237491     0.00000000000000
   21     0.00001772396340     0.00144621344537     0.00005463705635     0.00000853596960     0.00029043682421
   22     0.00019867517179     0.00625939367424     0.00007749782643     0.00001204303519     0.00042161775426
   23     0.00018246950624     0.00677001816323     0.00008932410847     0.00001604136611     0.00039339699429

                21                  22                  23

    1     0.00006981161305     0.00008573056536     0.00010487039853
    2     0.00002509973384     0.00003829848010     0.00004217443541
    3     0.00001446290465     0.00003248726478     0.00003547106639
    4     0.00000214659523     0.00001730283532     0.00001703879468
    5     0.00000234849338     0.00000474312486     0.00000621723185
    6     0.00003229534431     0.00018671485075     0.00015897545022
    7     0.00018589475111     0.00078753361460     0.00082670420008
    8     0.00034301861218     0.00092227709358     0.00121421385680
    9     0.00320043136853     0.01308142327309     0.01540763028438
   10     0.01262161266010     0.01279093106586     0.01545927181919
   11     0.00196988497713     0.00210779307603     0.00216002690317
   12     0.00043007495647     0.00052203617666     0.00058704838957
   13     0.07421971799615     0.06519829997337     0.06274777614700
   14     0.94121261798951     0.94088920109350     0.93826600308646
   15     0.00000947819589     0.00003057368710     0.00003653733028
   16     0.00001772396340     0.00019867517179     0.00018246950624
   17     0.00144621344537     0.00625939367424     0.00677001816323
   18     0.00005463705635     0.00007749782643     0.00008932410847
   19     0.00000853596960     0.00001204303519     0.00001604136611
   20     0.00029043682421     0.00042161775426     0.00039339699429
   21     0.00000000000000     0.04165009562546     0.04203300781086
   22     0.04165009562546     0.00000000000000     0.03742405983131
   23     0.04203300781086     0.03742405983131     0.00000000000000



  Atomic Valences: 

 #  #
 Irrep: 1
      1:  4.1609036
      2:  5.0585126
      3:  5.0842343
      4:  1.7974535
      5:  1.8746155
      6:  4.9427609
      7:  4.6398709
      8:  4.4359026
      9:  4.4741415
     10:  4.8160280
     11:  4.4679312
     12:  4.7354995
     13:  3.2267580
     14:  4.2540240
     15:  2.8769253
     16:  2.9188024
     17:  1.1193373
     18:  1.0986977
     19:  1.1463139
     20:  1.1072008
     21:  1.1198395
     22:  1.1227387
     23:  1.1239783


    Psi4 stopped on: Tuesday, 22 June 2021 07:48AM
    Psi4 wall time for execution: 0:01:27.78

*** Psi4 exiting successfully. Buy a developer a beer!
