
    -----------------------------------------------------------------------
          Psi4: An Open-Source Ab Initio Electronic Structure Package
                               Psi4 1.3.2 release

                         Git: Rev {HEAD} ecbda83 


    R. M. Parrish, L. A. Burns, D. G. A. Smith, A. C. Simmonett,
    A. E. DePrince III, E. G. Hohenstein, U. Bozkaya, A. Yu. Sokolov,
    R. Di Remigio, R. M. Richard, J. F. Gonthier, A. M. James,
    H. R. McAlexander, A. Kumar, M. Saitow, X. Wang, B. P. Pritchard,
    P. Verma, H. F. Schaefer III, K. Patkowski, R. A. King, E. F. Valeev,
    F. A. Evangelista, J. M. Turney, T. D. Crawford, and C. D. Sherrill,
    J. Chem. Theory Comput. 13(7) pp 3185--3197 (2017).
    (doi: 10.1021/acs.jctc.7b00174)


                         Additional Contributions by
    P. Kraus, H. Kruse, M. H. Lechner, M. C. Schieber, R. A. Shaw,
    A. Alenaizan, R. Galvelis, Z. L. Glick, S. Lehtola, and J. P. Misiewicz

    -----------------------------------------------------------------------


    Psi4 started on: Tuesday, 22 June 2021 07:40AM

    Process ID: 32089
    Host:       cpu-spot-dy-c5n2xlarge-1
    PSIDATADIR: /fsx/users/francis/anaconda3/envs/poltype-dev/share/psi4
    Memory:     500.0 MiB
    Threads:    1
    
  ==> Input File <==

--------------------------------------------------------------------------
molecule { 
0 1
 N   -1.153345   -1.377093   -0.310259
 C   -2.445896   -0.937256   -0.190506
 C   -2.581010    0.491565    0.382835
 F   -3.738184    1.026717   -0.013081
 F   -2.612884    0.342546    1.748093
 C   -1.397887    1.449946    0.091984
 C   -0.088483    0.795584   -0.012795
 C    1.089929    1.543682    0.046124
 C    2.333547    0.945917   -0.063300
 C    2.420729   -0.440350   -0.258616
 C    1.246603   -1.201478   -0.319192
 C    0.001857   -0.593955   -0.204889
 S    3.905231   -1.384715   -0.410243
 C    5.291549   -0.243466   -0.123223
 O   -3.406402   -1.623577   -0.443379
 O   -1.588564    2.643988    0.031436
 H    3.217567    1.567956   -0.002423
 H    1.006997    2.616563    0.190737
 H   -1.058790   -2.343170   -0.599132
 H    1.308849   -2.278161   -0.457315
 H    5.806636   -0.526771    0.796314
 H    5.980207   -0.327592   -0.965839
 H    4.967451    0.793338   -0.047439
}
memory 16GB
set_num_threads(8)
psi4_io.set_default_path("/scratch/Psi4-ligand")
set freeze_core True
E, wfn = energy('wb97x-d/6-311++g**',return_wfn=True)
oeprop(wfn,"WIBERG_LOWDIN_INDICES")
clean()
--------------------------------------------------------------------------

  Memory set to  14.901 GiB by Python driver.
  Threads set to 8 by Python driver.

*** tstart() called on cpu-spot-dy-c5n2xlarge-1
*** at Tue Jun 22 07:40:30 2021

   => Loading Basis Set <=

    Name: 6-311++G**
    Role: ORBITAL
    Keyword: BASIS
    atoms 1             entry N          line   140 file /fsx/users/francis/anaconda3/envs/poltype-dev/share/psi4/basis/6-311ppgss.gbs 
    atoms 2-3, 6-12, 14 entry C          line   119 file /fsx/users/francis/anaconda3/envs/poltype-dev/share/psi4/basis/6-311ppgss.gbs 
    atoms 4-5           entry F          line   182 file /fsx/users/francis/anaconda3/envs/poltype-dev/share/psi4/basis/6-311ppgss.gbs 
    atoms 13            entry S          line   419 file /fsx/users/francis/anaconda3/envs/poltype-dev/share/psi4/basis/6-311ppgss.gbs 
    atoms 15-16         entry O          line   161 file /fsx/users/francis/anaconda3/envs/poltype-dev/share/psi4/basis/6-311ppgss.gbs 
    atoms 17-23         entry H          line    42 file /fsx/users/francis/anaconda3/envs/poltype-dev/share/psi4/basis/6-311ppgss.gbs 


         ---------------------------------------------------------
                                   SCF
               by Justin Turney, Rob Parrish, Andy Simmonett
                          and Daniel G. A. Smith
                              RKS Reference
                        8 Threads,  15258 MiB Core
         ---------------------------------------------------------

  ==> Geometry <==

    Molecular point group: c1
    Full point group: C1

    Geometry (in Angstrom), charge = 0, multiplicity = 1:

       Center              X                  Y                   Z               Mass       
    ------------   -----------------  -----------------  -----------------  -----------------
         N           -1.153345135715    -1.377092963027    -0.310259174077    14.003074004430
         C           -2.445896135715    -0.937255963027    -0.190506174077    12.000000000000
         C           -2.581010135715     0.491565036973     0.382834825923    12.000000000000
         F           -3.738184135715     1.026717036973    -0.013081174077    18.998403162730
         F           -2.612884135715     0.342546036973     1.748092825923    18.998403162730
         C           -1.397887135715     1.449946036973     0.091983825923    12.000000000000
         C           -0.088483135715     0.795584036973    -0.012795174077    12.000000000000
         C            1.089928864285     1.543682036973     0.046123825923    12.000000000000
         C            2.333546864285     0.945917036973    -0.063300174077    12.000000000000
         C            2.420728864285    -0.440349963027    -0.258616174077    12.000000000000
         C            1.246602864285    -1.201477963027    -0.319192174077    12.000000000000
         C            0.001856864285    -0.593954963027    -0.204889174077    12.000000000000
         S            3.905230864285    -1.384714963027    -0.410243174077    31.972071174400
         C            5.291548864285    -0.243465963027    -0.123223174077    12.000000000000
         O           -3.406402135715    -1.623576963027    -0.443379174077    15.994914619570
         O           -1.588564135715     2.643988036973     0.031435825923    15.994914619570
         H            3.217566864285     1.567956036973    -0.002423174077     1.007825032230
         H            1.006996864285     2.616563036973     0.190736825923     1.007825032230
         H           -1.058790135715    -2.343169963027    -0.599132174077     1.007825032230
         H            1.308848864285    -2.278160963027    -0.457315174077     1.007825032230
         H            5.806635864285    -0.526770963027     0.796313825923     1.007825032230
         H            5.980206864285    -0.327591963027    -0.965839174077     1.007825032230
         H            4.967450864285     0.793338036973    -0.047439174077     1.007825032230

  Running in c1 symmetry.

  Rotational constants: A =      0.03953  B =      0.00835  C =      0.00724 [cm^-1]
  Rotational constants: A =   1185.00806  B =    250.42602  C =    216.93413 [MHz]
  Nuclear repulsion = 1190.295938909669530

  Charge       = 0
  Multiplicity = 1
  Electrons    = 124
  Nalpha       = 62
  Nbeta        = 62

  ==> Algorithm <==

  SCF Algorithm Type is DF.
  DIIS enabled.
  MOM disabled.
  Fractional occupation disabled.
  Guess Type is SAD.
  Energy threshold   = 1.00e-06
  Density threshold  = 1.00e-06
  Integral threshold = 0.00e+00

  ==> Primary Basis <==

  Basis Set: 6-311++G**
    Blend: 6-311++G**
    Number of shells: 199
    Number of basis function: 409
    Number of Cartesian functions: 425
    Spherical Harmonics?: true
    Max angular momentum: 2

  ==> DFT Potential <==

   => Composite Functional: WB97X-D <= 

    wB97X-D Hyb-GGA Exchange-Correlation Functional

    J.-D. Chai and M. Head-Gordon, Phys. Chem. Chem. Phys. 10, 6615 (2008)

    Deriv               =              1
    GGA                 =           TRUE
    Meta                =          FALSE

    Exchange Hybrid     =           TRUE
    MP2 Hybrid          =          FALSE

   => Exchange-Correlation Functionals <=

    1.0000   wB97D range-separated functional

   => Exact (HF) Exchange <=

    0.7780            HF,LR [omega = 0.2000]
    0.2220               HF 

   => Molecular Quadrature <=

    Radial Scheme          =       TREUTLER
    Pruning Scheme         =           FLAT
    Nuclear Scheme         =       TREUTLER

    BS radius alpha        =              1
    Pruning alpha          =              1
    Radial Points          =             75
    Spherical Points       =            302
    Total Points           =         520870
    Total Blocks           =           3891
    Max Points             =            256
    Max Functions          =            318

   => WB97X-D: Empirical Dispersion <=

    Chai and Head-Gordon Dispersion Correction
    Chai, J.-D.; Head-Gordon, M. (2010), J. Chem. Phys., 132: 6615-6620

        s6 =       1.000000

   => Loading Basis Set <=

    Name: (6-311++G** AUX)
    Role: JKFIT
    Keyword: DF_BASIS_SCF
    atoms 1             entry N          line   224 file /fsx/users/francis/anaconda3/envs/poltype-dev/share/psi4/basis/aug-cc-pvtz-jkfit.gbs 
    atoms 2-3, 6-12, 14 entry C          line   162 file /fsx/users/francis/anaconda3/envs/poltype-dev/share/psi4/basis/aug-cc-pvtz-jkfit.gbs 
    atoms 4-5           entry F          line   348 file /fsx/users/francis/anaconda3/envs/poltype-dev/share/psi4/basis/aug-cc-pvtz-jkfit.gbs 
    atoms 13            entry S          line   730 file /fsx/users/francis/anaconda3/envs/poltype-dev/share/psi4/basis/aug-cc-pvtz-jkfit.gbs 
    atoms 15-16         entry O          line   286 file /fsx/users/francis/anaconda3/envs/poltype-dev/share/psi4/basis/aug-cc-pvtz-jkfit.gbs 
    atoms 17-23         entry H          line    70 file /fsx/users/francis/anaconda3/envs/poltype-dev/share/psi4/basis/aug-cc-pvtz-jkfit.gbs 

  ==> Pre-Iterations <==

   -------------------------------------------------------
    Irrep   Nso     Nmo     Nalpha   Nbeta   Ndocc  Nsocc
   -------------------------------------------------------
     A        409     409       0       0       0       0
   -------------------------------------------------------
    Total     409     409      62      62      62       0
   -------------------------------------------------------

  ==> Integral Setup <==

  ==> DiskDFJK: Density-Fitted J/K Matrices <==

    J tasked:                  Yes
    K tasked:                  Yes
    wK tasked:                 Yes
    Omega:               2.000E-01
    OpenMP threads:              8
    Integrals threads:           8
    Memory [MiB]:             7968
    Algorithm:                Core
    Integral Cache:           NONE
    Schwarz Cutoff:          1E-12
    Fitting Condition:       1E-10

   => Auxiliary Basis Set <=

  Basis Set: (6-311++G** AUX)
    Blend: AUG-CC-PVTZ-JKFIT
    Number of shells: 590
    Number of basis function: 2028
    Number of Cartesian functions: 2530
    Spherical Harmonics?: true
    Max angular momentum: 4

  Cached 100.0% of DFT collocation blocks in 3.395 [GiB].

  Minimum eigenvalue in the overlap matrix is 2.3803933919E-07.
  Using Symmetric Orthogonalization.

  SCF Guess: Superposition of Atomic Densities via on-the-fly atomic UHF.

  ==> Iterations <==

                           Total Energy        Delta E     RMS |[F,P]|

   @DF-RKS iter SAD: -1187.91378329370173   -1.18791e+03   0.00000e+00 
   @DF-RKS iter   1: -1187.70860537510998    2.05178e-01   2.90682e-03 DIIS
   @DF-RKS iter   2: -1187.76056015350673   -5.19548e-02   2.96196e-03 DIIS
   @DF-RKS iter   3: -1188.30252377056399   -5.41964e-01   6.47677e-04 DIIS
   @DF-RKS iter   4: -1188.32576578178032   -2.32420e-02   2.40423e-04 DIIS
   @DF-RKS iter   5: -1188.32983655439170   -4.07077e-03   6.33321e-05 DIIS
   @DF-RKS iter   6: -1188.33027467493480   -4.38121e-04   1.94848e-05 DIIS
   @DF-RKS iter   7: -1188.33033223984148   -5.75649e-05   8.24897e-06 DIIS
   @DF-RKS iter   8: -1188.33034915566236   -1.69158e-05   3.34352e-06 DIIS
   @DF-RKS iter   9: -1188.33035238896650   -3.23330e-06   1.54735e-06 DIIS
   @DF-RKS iter  10: -1188.33035276710621   -3.78140e-07   5.90068e-07 DIIS
  Energy and wave function converged.


  ==> Post-Iterations <==

    Orbital Energies [Eh]
    ---------------------

    Doubly Occupied:                                                      

       1A    -89.052651     2A    -24.841760     3A    -24.839871  
       4A    -19.271293     5A    -19.261974     6A    -14.514912  
       7A    -10.484251     8A    -10.436314     9A    -10.411676  
      10A    -10.389365    11A    -10.372885    12A    -10.340543  
      13A    -10.334380    14A    -10.330113    15A    -10.329455  
      16A    -10.324208    17A     -8.093236    18A     -6.042778  
      19A     -6.038216    20A     -6.032381    21A     -1.391411  
      22A     -1.329902    23A     -1.193463    24A     -1.181074  
      25A     -1.097680    26A     -1.005588    27A     -0.943114  
      28A     -0.906592    29A     -0.888590    30A     -0.868942  
      31A     -0.799866    32A     -0.765339    33A     -0.753810  
      34A     -0.745412    35A     -0.697911    36A     -0.682084  
      37A     -0.671327    38A     -0.645859    39A     -0.631470  
      40A     -0.593884    41A     -0.589116    42A     -0.571151  
      43A     -0.564197    44A     -0.559832    45A     -0.557069  
      46A     -0.549572    47A     -0.546846    48A     -0.535358  
      49A     -0.520109    50A     -0.515315    51A     -0.510897  
      52A     -0.499680    53A     -0.491927    54A     -0.489465  
      55A     -0.475564    56A     -0.444151    57A     -0.431648  
      58A     -0.399155    59A     -0.395657    60A     -0.364746  
      61A     -0.341276    62A     -0.317429  

    Virtual:                                                              

      63A     -0.041374    64A      0.013319    65A      0.025584  
      66A      0.034756    67A      0.046690    68A      0.053991  
      69A      0.062522    70A      0.064209    71A      0.070911  
      72A      0.073205    73A      0.079975    74A      0.083217  
      75A      0.094885    76A      0.098557    77A      0.102811  
      78A      0.110919    79A      0.113561    80A      0.120174  
      81A      0.122256    82A      0.125029    83A      0.132917  
      84A      0.134406    85A      0.144161    86A      0.144859  
      87A      0.151271    88A      0.155399    89A      0.157629  
      90A      0.167032    91A      0.170679    92A      0.173312  
      93A      0.174711    94A      0.178879    95A      0.181843  
      96A      0.187158    97A      0.197526    98A      0.198967  
      99A      0.201539   100A      0.204232   101A      0.206583  
     102A      0.214089   103A      0.214741   104A      0.217409  
     105A      0.219875   106A      0.226925   107A      0.232040  
     108A      0.232580   109A      0.241092   110A      0.243818  
     111A      0.248657   112A      0.257702   113A      0.260706  
     114A      0.269248   115A      0.270722   116A      0.277118  
     117A      0.277642   118A      0.283234   119A      0.284492  
     120A      0.296528   121A      0.299805   122A      0.299898  
     123A      0.306128   124A      0.310544   125A      0.317061  
     126A      0.319114   127A      0.323510   128A      0.331790  
     129A      0.337208   130A      0.340135   131A      0.346426  
     132A      0.351248   133A      0.359820   134A      0.365689  
     135A      0.368470   136A      0.376896   137A      0.381900  
     138A      0.386120   139A      0.389646   140A      0.394417  
     141A      0.398727   142A      0.405645   143A      0.411381  
     144A      0.418988   145A      0.426465   146A      0.429415  
     147A      0.438422   148A      0.444706   149A      0.451102  
     150A      0.464088   151A      0.467050   152A      0.472398  
     153A      0.481666   154A      0.488554   155A      0.491851  
     156A      0.496479   157A      0.505493   158A      0.524899  
     159A      0.530788   160A      0.541655   161A      0.549251  
     162A      0.559438   163A      0.569983   164A      0.571883  
     165A      0.586179   166A      0.599949   167A      0.609967  
     168A      0.612192   169A      0.626379   170A      0.635771  
     171A      0.645926   172A      0.648079   173A      0.655187  
     174A      0.666384   175A      0.680399   176A      0.692110  
     177A      0.700473   178A      0.715126   179A      0.730939  
     180A      0.732013   181A      0.743319   182A      0.748512  
     183A      0.752556   184A      0.756555   185A      0.768039  
     186A      0.776954   187A      0.782149   188A      0.792378  
     189A      0.799632   190A      0.810282   191A      0.814779  
     192A      0.826298   193A      0.839606   194A      0.842743  
     195A      0.851962   196A      0.871253   197A      0.873995  
     198A      0.888173   199A      0.909254   200A      0.923764  
     201A      0.930081   202A      0.944631   203A      0.954525  
     204A      0.966062   205A      0.979487   206A      0.988417  
     207A      0.988750   208A      0.997514   209A      1.007492  
     210A      1.017789   211A      1.038280   212A      1.054239  
     213A      1.062047   214A      1.067069   215A      1.092212  
     216A      1.103369   217A      1.122426   218A      1.131635  
     219A      1.155133   220A      1.169859   221A      1.176972  
     222A      1.181878   223A      1.206417   224A      1.210911  
     225A      1.231005   226A      1.248807   227A      1.263326  
     228A      1.275823   229A      1.284827   230A      1.291754  
     231A      1.303433   232A      1.328796   233A      1.334183  
     234A      1.343118   235A      1.358066   236A      1.387882  
     237A      1.396281   238A      1.441554   239A      1.486607  
     240A      1.502252   241A      1.507093   242A      1.527997  
     243A      1.540704   244A      1.550785   245A      1.558114  
     246A      1.568476   247A      1.578092   248A      1.591184  
     249A      1.602197   250A      1.610040   251A      1.616544  
     252A      1.621507   253A      1.625633   254A      1.650343  
     255A      1.653349   256A      1.676296   257A      1.678079  
     258A      1.695412   259A      1.714616   260A      1.721475  
     261A      1.733242   262A      1.751424   263A      1.762023  
     264A      1.775841   265A      1.791916   266A      1.804210  
     267A      1.821013   268A      1.828644   269A      1.834987  
     270A      1.848534   271A      1.867371   272A      1.874400  
     273A      1.882533   274A      1.927643   275A      1.946696  
     276A      1.960585   277A      1.982504   278A      1.997993  
     279A      2.003633   280A      2.006706   281A      2.036856  
     282A      2.043613   283A      2.060903   284A      2.064439  
     285A      2.094802   286A      2.103953   287A      2.130368  
     288A      2.140179   289A      2.146307   290A      2.163837  
     291A      2.187096   292A      2.210158   293A      2.237959  
     294A      2.241146   295A      2.250481   296A      2.286214  
     297A      2.299021   298A      2.326001   299A      2.343170  
     300A      2.360009   301A      2.427686   302A      2.488734  
     303A      2.508951   304A      2.526310   305A      2.535106  
     306A      2.554419   307A      2.578040   308A      2.589565  
     309A      2.598492   310A      2.619556   311A      2.651224  
     312A      2.676464   313A      2.749612   314A      2.766639  
     315A      2.785407   316A      2.805431   317A      2.808789  
     318A      2.823040   319A      2.840731   320A      2.848583  
     321A      2.872204   322A      2.890628   323A      2.894239  
     324A      2.905503   325A      2.928441   326A      2.940412  
     327A      2.972344   328A      2.978753   329A      3.001734  
     330A      3.017092   331A      3.031350   332A      3.051282  
     333A      3.074329   334A      3.082446   335A      3.111139  
     336A      3.144973   337A      3.165233   338A      3.186249  
     339A      3.281295   340A      3.286626   341A      3.327803  
     342A      3.370374   343A      3.407033   344A      3.430934  
     345A      3.439831   346A      3.484540   347A      3.530105  
     348A      3.553535   349A      3.594125   350A      3.632896  
     351A      3.646876   352A      3.683925   353A      3.701105  
     354A      3.758719   355A      3.802509   356A      3.810830  
     357A      3.850616   358A      3.860715   359A      3.876003  
     360A      3.900025   361A      3.934111   362A      3.949654  
     363A      3.968268   364A      4.001586   365A      4.025393  
     366A      4.084433   367A      4.156677   368A      4.185148  
     369A      4.244969   370A      4.273576   371A      4.352441  
     372A      4.495708   373A      4.823174   374A      4.889894  
     375A      4.920601   376A      5.049551   377A      5.167365  
     378A      5.174500   379A      5.178933   380A      5.311703  
     381A      5.321237   382A      5.830162   383A      5.874583  
     384A      6.487272   385A      6.504220   386A      6.519591  
     387A      6.536279   388A      6.652245   389A      6.909430  
     390A      8.095216   391A     17.440807   392A     17.618689  
     393A     17.654287   394A     23.629167   395A     23.747395  
     396A     23.968819   397A     24.000747   398A     24.025990  
     399A     24.033658   400A     24.038057   401A     24.136483  
     402A     24.190176   403A     24.277689   404A     35.752961  
     405A     50.130266   406A     50.147850   407A     66.919468  
     408A     66.960538   409A    189.358591  

    Final Occupation by Irrep:
              A 
    DOCC [    62 ]

  @DF-RKS Final Energy: -1188.33035276710621

   => Energetics <=

    Nuclear Repulsion Energy =           1190.2959389096695304
    One-Electron Energy =               -3995.5675234489381182
    Two-Electron Energy =                1706.6948344337722574
    DFT Exchange-Correlation Energy =     -89.7400846096266633
    Empirical Dispersion Energy =          -0.0135180519831716
    VV10 Nonlocal Energy =                  0.0000000000000000
    Total Energy =                      -1188.3303527671062056

Computation Completed


Properties will be evaluated at   0.000000,   0.000000,   0.000000 [a0]

Properties computed using the SCF density matrix

  Nuclear Dipole Moment: [e a0]
     X:    25.9752      Y:    -1.7860      Z:    -2.6659

  Electronic Dipole Moment: [e a0]
     X:   -22.8390      Y:     1.2129      Z:     2.4309

  Dipole Moment: [e a0]
     X:     3.1362      Y:    -0.5731      Z:    -0.2350     Total:     3.1968

  Dipole Moment: [D]
     X:     7.9715      Y:    -1.4568      Z:    -0.5973     Total:     8.1255


*** tstop() called on cpu-spot-dy-c5n2xlarge-1 at Tue Jun 22 07:41:58 2021
Module time:
	user time   =     640.09 seconds =      10.67 minutes
	system time =      10.63 seconds =       0.18 minutes
	total time  =         88 seconds =       1.47 minutes
Total time:
	user time   =     640.09 seconds =      10.67 minutes
	system time =      10.63 seconds =       0.18 minutes
	total time  =         88 seconds =       1.47 minutes


Properties will be evaluated at   0.000000,   0.000000,   0.000000 [a0]
OEProp: No title given, name of density matrix used for the following properties is 'SCF density'


  Wiberg Bond Indices using Orthogonal Lowdin Orbitals:

  Irrep: 1 Size: 23 x 23

                 1                   2                   3                   4                   5

    1     0.00000000000000     1.31365324142301     0.10261244893134     0.01073392196503     0.02320931418570
    2     1.31365324142301     0.00000000000000     0.88331647847841     0.10666019153829     0.11254636723399
    3     0.10261244893134     0.88331647847841     0.00000000000000     1.40635191446912     1.31401824264289
    4     0.01073392196503     0.10666019153829     1.40635191446912     0.00000000000000     0.13699077149245
    5     0.02320931418570     0.11254636723399     1.31401824264289     0.13699077149245     0.00000000000000
    6     0.03502913678976     0.07689123744007     0.89772378517141     0.10355002480473     0.11309396495470
    7     0.11692339457512     0.03627660624669     0.10186996478198     0.01181828625877     0.02261445914169
    8     0.01528811581598     0.00386146743925     0.01411774783849     0.00207180169460     0.00330645916296
    9     0.01458928577973     0.00520655081384     0.00261993048848     0.00043436447194     0.00064872485488
   10     0.01716554112495     0.00304610127502     0.00158910503499     0.00024871099139     0.00123103547071
   11     0.13394265614412     0.02651653725956     0.00457416047256     0.00043458649718     0.00126006916364
   12     1.18542338568976     0.09761882175101     0.03315487417588     0.00375122489803     0.01163476367432
   13     0.00286809919931     0.00105806625177     0.00069374291426     0.00011547496014     0.00069290146627
   14     0.00050361277558     0.00016540651598     0.00008799753436     0.00001446072319     0.00002787652911
   15     0.24447864374368     2.29958551136761     0.15044691694889     0.04381812926282     0.02827270350847
   16     0.00452984003749     0.01772287115246     0.15823970937400     0.04569401169171     0.03129519253901
   17     0.00071878369764     0.00022554378382     0.00047345221956     0.00008592706207     0.00005337493561
   18     0.00129069280778     0.00049134424776     0.00208195703485     0.00040537420728     0.00033812656154
   19     0.91435995032372     0.07275043380031     0.01391348556439     0.00206487634889     0.00154672881218
   20     0.02320429630315     0.00230566828781     0.00074557869040     0.00012321754651     0.00010770768512
   21     0.00008941297232     0.00003811634873     0.00002106385052     0.00000328378454     0.00001647111335
   22     0.00008884942360     0.00003991452222     0.00001526199631     0.00000230640271     0.00001085817016
   23     0.00008816362210     0.00002837661134     0.00005095327984     0.00000811877825     0.00000597007041

                 6                   7                   8                   9                  10

    1     0.03502913678976     0.11692339457512     0.01528811581598     0.01458928577973     0.01716554112495
    2     0.07689123744007     0.03627660624669     0.00386146743925     0.00520655081384     0.00304610127502
    3     0.89772378517141     0.10186996478198     0.01411774783849     0.00261993048848     0.00158910503499
    4     0.10355002480473     0.01181828625877     0.00207180169460     0.00043436447194     0.00024871099139
    5     0.11309396495470     0.02261445914169     0.00330645916296     0.00064872485488     0.00123103547071
    6     0.00000000000000     1.05847829647210     0.12017852165219     0.02006874549606     0.01474045138878
    7     1.05847829647210     0.00000000000000     1.34780390475717     0.13236497946303     0.10834258471045
    8     0.12017852165219     1.34780390475717     0.00000000000000     1.49958447841183     0.13574764222734
    9     0.02006874549606     0.13236497946303     1.49958447841183     0.00000000000000     1.37833287004687
   10     0.01474045138878     0.10834258471045     0.13574764222734     1.37833287004687     0.00000000000000
   11     0.01595957393182     0.11999978106391     0.12106961532085     0.12546781057341     1.41196427196826
   12     0.11389456378388     1.27195882437599     0.12407726480339     0.10823417649086     0.12936741579740
   13     0.00659638694272     0.02305838126104     0.02548225015711     0.14265314884338     1.30847318435412
   14     0.00031203748582     0.00148412776604     0.00386938221567     0.04353245282802     0.07805491308601
   15     0.01689803480610     0.00874856822686     0.00109231013029     0.00429495950171     0.00195591772085
   16     2.32233142007707     0.16346919661939     0.07242696282094     0.00619741593927     0.01534873325721
   17     0.00147781465707     0.01228623582282     0.08392718008244     0.85976247056921     0.07463855018109
   18     0.02006927642443     0.07726976247220     0.85314890203404     0.08052012053444     0.01214997428378
   19     0.00271668318835     0.01274350894226     0.00171953772709     0.00140518870106     0.00194212851571
   20     0.00172856304239     0.01147337211850     0.00558857889492     0.01250468699423     0.07535389695378
   21     0.00013847344591     0.00044272449707     0.00022277914364     0.00303202342039     0.00911221511162
   22     0.00010179969187     0.00030665852507     0.00021596924056     0.00258009009188     0.00955770311226
   23     0.00010816418165     0.00061785734162     0.00239832123526     0.02437162809356     0.02122744119598

                11                  12                  13                  14                  15

    1     0.13394265614412     1.18542338568976     0.00286809919931     0.00050361277558     0.24447864374368
    2     0.02651653725956     0.09761882175101     0.00105806625177     0.00016540651598     2.29958551136761
    3     0.00457416047256     0.03315487417588     0.00069374291426     0.00008799753436     0.15044691694889
    4     0.00043458649718     0.00375122489803     0.00011547496014     0.00001446072319     0.04381812926282
    5     0.00126006916364     0.01163476367432     0.00069290146627     0.00002787652911     0.02827270350847
    6     0.01595957393182     0.11389456378388     0.00659638694272     0.00031203748582     0.01689803480610
    7     0.11999978106391     1.27195882437599     0.02305838126104     0.00148412776604     0.00874856822686
    8     0.12106961532085     0.12407726480339     0.02548225015711     0.00386938221567     0.00109231013029
    9     0.12546781057341     0.10823417649086     0.14265314884338     0.04353245282802     0.00429495950171
   10     1.41196427196826     0.12936741579740     1.30847318435412     0.07805491308601     0.00195591772085
   11     0.00000000000000     1.39507615279695     0.18675236742334     0.01857197185492     0.01228478007603
   12     1.39507615279695     0.00000000000000     0.02620798226293     0.00317734857482     0.03049888401720
   13     0.18675236742334     0.02620798226293     0.00000000000000     1.23491819071203     0.00084631432710
   14     0.01857197185492     0.00317734857482     1.23491819071203     0.00000000000000     0.00010348183987
   15     0.01228478007603     0.03049888401720     0.00084631432710     0.00010348183987     0.00000000000000
   16     0.00489600608416     0.04036292276848     0.00683449238043     0.00023008210879     0.00679848076598
   17     0.01228459896539     0.00529831732214     0.01946000260162     0.02129464113326     0.00016360783066
   18     0.00532061029847     0.01201566145202     0.00218475021489     0.00043381458660     0.00018730591039
   19     0.02010181240622     0.06528538726177     0.00033414442777     0.00006757084266     0.02788977838925
   20     0.84991244864660     0.07810846350218     0.03413191262179     0.00270031688255     0.00066963202688
   21     0.00210329829466     0.00056425368915     0.07026432083671     0.94804858813206     0.00004078869232
   22     0.00210428002484     0.00058400515061     0.07165165062206     0.94731468047694     0.00003325594364
   23     0.00230081151963     0.00038890480382     0.05521315786380     0.93060900401439     0.00000786445295

                16                  17                  18                  19                  20

    1     0.00452984003749     0.00071878369764     0.00129069280778     0.91435995032372     0.02320429630315
    2     0.01772287115246     0.00022554378382     0.00049134424776     0.07275043380031     0.00230566828781
    3     0.15823970937400     0.00047345221956     0.00208195703485     0.01391348556439     0.00074557869040
    4     0.04569401169171     0.00008592706207     0.00040537420728     0.00206487634889     0.00012321754651
    5     0.03129519253901     0.00005337493561     0.00033812656154     0.00154672881218     0.00010770768512
    6     2.32233142007707     0.00147781465707     0.02006927642443     0.00271668318835     0.00172856304239
    7     0.16346919661939     0.01228623582282     0.07726976247220     0.01274350894226     0.01147337211850
    8     0.07242696282094     0.08392718008244     0.85314890203404     0.00171953772709     0.00558857889492
    9     0.00619741593927     0.85976247056921     0.08052012053444     0.00140518870106     0.01250468699423
   10     0.01534873325721     0.07463855018109     0.01214997428378     0.00194212851571     0.07535389695378
   11     0.00489600608416     0.01228459896539     0.00532061029847     0.02010181240622     0.84991244864660
   12     0.04036292276848     0.00529831732214     0.01201566145202     0.06528538726177     0.07810846350218
   13     0.00683449238043     0.01946000260162     0.00218475021489     0.00033414442777     0.03413191262179
   14     0.00023008210879     0.02129464113326     0.00043381458660     0.00006757084266     0.00270031688255
   15     0.00679848076598     0.00016360783066     0.00018730591039     0.02788977838925     0.00066963202688
   16     0.00000000000000     0.00037868516937     0.01904155159784     0.00049852582379     0.00060868855080
   17     0.00037868516937     0.00000000000000     0.01048167085240     0.00010958905721     0.00117284111364
   18     0.01904155159784     0.01048167085240     0.00000000000000     0.00060269554816     0.00047998397348
   19     0.00049852582379     0.00010958905721     0.00060269554816     0.00000000000000     0.00627656117522
   20     0.00060868855080     0.00117284111364     0.00047998397348     0.00627656117522     0.00000000000000
   21     0.00014358984674     0.00136306124941     0.00003095863637     0.00000834246645     0.00027038183415
   22     0.00009620662998     0.00127372879390     0.00003267664140     0.00000851161303     0.00030866866553
   23     0.00004370584505     0.01723065910995     0.00019055335969     0.00001635392482     0.00061794746758

                21                  22                  23

    1     0.00008941297232     0.00008884942360     0.00008816362210
    2     0.00003811634873     0.00003991452222     0.00002837661134
    3     0.00002106385052     0.00001526199631     0.00005095327984
    4     0.00000328378454     0.00000230640271     0.00000811877825
    5     0.00001647111335     0.00001085817016     0.00000597007041
    6     0.00013847344591     0.00010179969187     0.00010816418165
    7     0.00044272449707     0.00030665852507     0.00061785734162
    8     0.00022277914364     0.00021596924056     0.00239832123526
    9     0.00303202342039     0.00258009009188     0.02437162809356
   10     0.00911221511162     0.00955770311226     0.02122744119598
   11     0.00210329829466     0.00210428002484     0.00230081151963
   12     0.00056425368915     0.00058400515061     0.00038890480382
   13     0.07026432083671     0.07165165062206     0.05521315786380
   14     0.94804858813206     0.94731468047694     0.93060900401439
   15     0.00004078869232     0.00003325594364     0.00000786445295
   16     0.00014358984674     0.00009620662998     0.00004370584505
   17     0.00136306124941     0.00127372879390     0.01723065910995
   18     0.00003095863637     0.00003267664140     0.00019055335969
   19     0.00000834246645     0.00000851161303     0.00001635392482
   20     0.00027038183415     0.00030866866553     0.00061794746758
   21     0.00000000000000     0.04026250460730     0.04165177505909
   22     0.04026250460730     0.00000000000000     0.04244007886146
   23     0.04165177505909     0.04244007886146     0.00000000000000



  Atomic Valences: 

 #  #
 Irrep: 1
      1:  4.1607908
      2:  5.0600049
      3:  5.0887188
      4:  1.8753810
      5:  1.8029221
      6:  4.9420870
      7:  4.6403515
      8:  4.4371992
      9:  4.4684061
     10:  4.8095904
     11:  4.4728982
     12:  4.7366836
     13:  3.2204909
     14:  4.2355220
     15:  2.8791159
     16:  2.9171883
     17:  1.1241607
     18:  1.0987678
     19:  1.1463618
     20:  1.1083934
     21:  1.1178684
     22:  1.1190297
     23:  1.1396158


    Psi4 stopped on: Tuesday, 22 June 2021 07:41AM
    Psi4 wall time for execution: 0:01:28.57

*** Psi4 exiting successfully. Buy a developer a beer!
