
    -----------------------------------------------------------------------
          Psi4: An Open-Source Ab Initio Electronic Structure Package
                               Psi4 1.3.2 release

                         Git: Rev {HEAD} ecbda83 


    R. M. Parrish, L. A. Burns, D. G. A. Smith, A. C. Simmonett,
    A. E. DePrince III, E. G. Hohenstein, U. Bozkaya, A. Yu. Sokolov,
    R. Di Remigio, R. M. Richard, J. F. Gonthier, A. M. James,
    H. R. McAlexander, A. Kumar, M. Saitow, X. Wang, B. P. Pritchard,
    P. Verma, H. F. Schaefer III, K. Patkowski, R. A. King, E. F. Valeev,
    F. A. Evangelista, J. M. Turney, T. D. Crawford, and C. D. Sherrill,
    J. Chem. Theory Comput. 13(7) pp 3185--3197 (2017).
    (doi: 10.1021/acs.jctc.7b00174)


                         Additional Contributions by
    P. Kraus, H. Kruse, M. H. Lechner, M. C. Schieber, R. A. Shaw,
    A. Alenaizan, R. Galvelis, Z. L. Glick, S. Lehtola, and J. P. Misiewicz

    -----------------------------------------------------------------------


    Psi4 started on: Tuesday, 22 June 2021 07:13AM

    Process ID: 31731
    Host:       cpu-spot-dy-c5n2xlarge-1
    PSIDATADIR: /fsx/users/francis/anaconda3/envs/poltype-dev/share/psi4
    Memory:     500.0 MiB
    Threads:    1
    
  ==> Input File <==

--------------------------------------------------------------------------
molecule { 
0 1
 N   -0.921711   -1.519119    0.384900
 C   -2.189206   -1.195656    0.794760
 C   -2.576278    0.279226    0.545678
 F   -3.073142    0.322350   -0.736145
 F   -3.546883    0.640026    1.387684
 C   -1.409078    1.295873    0.576920
 C   -0.122656    0.766876    0.102481
 C    0.925026    1.633163   -0.222067
 C    2.145355    1.149241   -0.660531
 C    2.342810   -0.235312   -0.768298
 C    1.317462   -1.113329   -0.406078
 C    0.082684   -0.620326    0.006662
 S    3.865758   -0.962555   -1.303895
 C    5.109154    0.181651   -0.641066
 O   -2.967395   -2.000916    1.248322
 O   -1.609587    2.439845    0.914422
 H    2.929511    1.846086   -0.933237
 H    0.753140    2.701488   -0.133061
 H   -0.691579   -2.502973    0.454233
 H    1.490215   -2.185730   -0.441790
 H    5.051157    1.169559   -1.102224
 H    5.012626    0.269458    0.443568
 H    6.079117   -0.259900   -0.881386
}
memory 16GB
set_num_threads(8)
psi4_io.set_default_path("/scratch/Psi4-ligand")
set freeze_core True
E, wfn = energy('wb97x-d/6-311++g**',return_wfn=True)
oeprop(wfn,"WIBERG_LOWDIN_INDICES")
clean()
--------------------------------------------------------------------------

  Memory set to  14.901 GiB by Python driver.
  Threads set to 8 by Python driver.

*** tstart() called on cpu-spot-dy-c5n2xlarge-1
*** at Tue Jun 22 07:13:47 2021

   => Loading Basis Set <=

    Name: 6-311++G**
    Role: ORBITAL
    Keyword: BASIS
    atoms 1             entry N          line   140 file /fsx/users/francis/anaconda3/envs/poltype-dev/share/psi4/basis/6-311ppgss.gbs 
    atoms 2-3, 6-12, 14 entry C          line   119 file /fsx/users/francis/anaconda3/envs/poltype-dev/share/psi4/basis/6-311ppgss.gbs 
    atoms 4-5           entry F          line   182 file /fsx/users/francis/anaconda3/envs/poltype-dev/share/psi4/basis/6-311ppgss.gbs 
    atoms 13            entry S          line   419 file /fsx/users/francis/anaconda3/envs/poltype-dev/share/psi4/basis/6-311ppgss.gbs 
    atoms 15-16         entry O          line   161 file /fsx/users/francis/anaconda3/envs/poltype-dev/share/psi4/basis/6-311ppgss.gbs 
    atoms 17-23         entry H          line    42 file /fsx/users/francis/anaconda3/envs/poltype-dev/share/psi4/basis/6-311ppgss.gbs 


         ---------------------------------------------------------
                                   SCF
               by Justin Turney, Rob Parrish, Andy Simmonett
                          and Daniel G. A. Smith
                              RKS Reference
                        8 Threads,  15258 MiB Core
         ---------------------------------------------------------

  ==> Geometry <==

    Molecular point group: c1
    Full point group: C1

    Geometry (in Angstrom), charge = 0, multiplicity = 1:

       Center              X                  Y                   Z               Mass       
    ------------   -----------------  -----------------  -----------------  -----------------
         N           -0.921711042387    -1.519119085027     0.384899986277    14.003074004430
         C           -2.189206042387    -1.195656085027     0.794759986277    12.000000000000
         C           -2.576278042387     0.279225914973     0.545677986277    12.000000000000
         F           -3.073142042387     0.322349914973    -0.736145013723    18.998403162730
         F           -3.546883042387     0.640025914973     1.387683986277    18.998403162730
         C           -1.409078042387     1.295872914973     0.576919986277    12.000000000000
         C           -0.122656042387     0.766875914973     0.102480986277    12.000000000000
         C            0.925025957613     1.633162914973    -0.222067013723    12.000000000000
         C            2.145354957613     1.149240914973    -0.660531013723    12.000000000000
         C            2.342809957613    -0.235312085027    -0.768298013723    12.000000000000
         C            1.317461957613    -1.113329085027    -0.406078013723    12.000000000000
         C            0.082683957613    -0.620326085027     0.006661986277    12.000000000000
         S            3.865757957613    -0.962555085027    -1.303895013723    31.972071174400
         C            5.109153957613     0.181650914973    -0.641066013723    12.000000000000
         O           -2.967395042387    -2.000916085027     1.248321986277    15.994914619570
         O           -1.609587042387     2.439844914973     0.914421986277    15.994914619570
         H            2.929510957613     1.846085914973    -0.933237013723     1.007825032230
         H            0.753139957613     2.701487914973    -0.133061013723     1.007825032230
         H           -0.691579042387    -2.502973085027     0.454232986277     1.007825032230
         H            1.490214957613    -2.185730085027    -0.441790013723     1.007825032230
         H            5.051156957613     1.169558914973    -1.102224013723     1.007825032230
         H            5.012625957613     0.269457914973     0.443567986277     1.007825032230
         H            6.079116957613    -0.259900085027    -0.881386013723     1.007825032230

  Running in c1 symmetry.

  Rotational constants: A =      0.03925  B =      0.00842  C =      0.00733 [cm^-1]
  Rotational constants: A =   1176.79155  B =    252.40134  C =    219.77943 [MHz]
  Nuclear repulsion = 1192.052020161214159

  Charge       = 0
  Multiplicity = 1
  Electrons    = 124
  Nalpha       = 62
  Nbeta        = 62

  ==> Algorithm <==

  SCF Algorithm Type is DF.
  DIIS enabled.
  MOM disabled.
  Fractional occupation disabled.
  Guess Type is SAD.
  Energy threshold   = 1.00e-06
  Density threshold  = 1.00e-06
  Integral threshold = 0.00e+00

  ==> Primary Basis <==

  Basis Set: 6-311++G**
    Blend: 6-311++G**
    Number of shells: 199
    Number of basis function: 409
    Number of Cartesian functions: 425
    Spherical Harmonics?: true
    Max angular momentum: 2

  ==> DFT Potential <==

   => Composite Functional: WB97X-D <= 

    wB97X-D Hyb-GGA Exchange-Correlation Functional

    J.-D. Chai and M. Head-Gordon, Phys. Chem. Chem. Phys. 10, 6615 (2008)

    Deriv               =              1
    GGA                 =           TRUE
    Meta                =          FALSE

    Exchange Hybrid     =           TRUE
    MP2 Hybrid          =          FALSE

   => Exchange-Correlation Functionals <=

    1.0000   wB97D range-separated functional

   => Exact (HF) Exchange <=

    0.7780            HF,LR [omega = 0.2000]
    0.2220               HF 

   => Molecular Quadrature <=

    Radial Scheme          =       TREUTLER
    Pruning Scheme         =           FLAT
    Nuclear Scheme         =       TREUTLER

    BS radius alpha        =              1
    Pruning alpha          =              1
    Radial Points          =             75
    Spherical Points       =            302
    Total Points           =         520870
    Total Blocks           =           3844
    Max Points             =            256
    Max Functions          =            321

   => WB97X-D: Empirical Dispersion <=

    Chai and Head-Gordon Dispersion Correction
    Chai, J.-D.; Head-Gordon, M. (2010), J. Chem. Phys., 132: 6615-6620

        s6 =       1.000000

   => Loading Basis Set <=

    Name: (6-311++G** AUX)
    Role: JKFIT
    Keyword: DF_BASIS_SCF
    atoms 1             entry N          line   224 file /fsx/users/francis/anaconda3/envs/poltype-dev/share/psi4/basis/aug-cc-pvtz-jkfit.gbs 
    atoms 2-3, 6-12, 14 entry C          line   162 file /fsx/users/francis/anaconda3/envs/poltype-dev/share/psi4/basis/aug-cc-pvtz-jkfit.gbs 
    atoms 4-5           entry F          line   348 file /fsx/users/francis/anaconda3/envs/poltype-dev/share/psi4/basis/aug-cc-pvtz-jkfit.gbs 
    atoms 13            entry S          line   730 file /fsx/users/francis/anaconda3/envs/poltype-dev/share/psi4/basis/aug-cc-pvtz-jkfit.gbs 
    atoms 15-16         entry O          line   286 file /fsx/users/francis/anaconda3/envs/poltype-dev/share/psi4/basis/aug-cc-pvtz-jkfit.gbs 
    atoms 17-23         entry H          line    70 file /fsx/users/francis/anaconda3/envs/poltype-dev/share/psi4/basis/aug-cc-pvtz-jkfit.gbs 

  ==> Pre-Iterations <==

   -------------------------------------------------------
    Irrep   Nso     Nmo     Nalpha   Nbeta   Ndocc  Nsocc
   -------------------------------------------------------
     A        409     409       0       0       0       0
   -------------------------------------------------------
    Total     409     409      62      62      62       0
   -------------------------------------------------------

  ==> Integral Setup <==

  ==> DiskDFJK: Density-Fitted J/K Matrices <==

    J tasked:                  Yes
    K tasked:                  Yes
    wK tasked:                 Yes
    Omega:               2.000E-01
    OpenMP threads:              8
    Integrals threads:           8
    Memory [MiB]:             7950
    Algorithm:                Core
    Integral Cache:           NONE
    Schwarz Cutoff:          1E-12
    Fitting Condition:       1E-10

   => Auxiliary Basis Set <=

  Basis Set: (6-311++G** AUX)
    Blend: AUG-CC-PVTZ-JKFIT
    Number of shells: 590
    Number of basis function: 2028
    Number of Cartesian functions: 2530
    Spherical Harmonics?: true
    Max angular momentum: 4

  Cached 100.0% of DFT collocation blocks in 3.412 [GiB].

  Minimum eigenvalue in the overlap matrix is 2.8407097112E-07.
  Using Symmetric Orthogonalization.

  SCF Guess: Superposition of Atomic Densities via on-the-fly atomic UHF.

  ==> Iterations <==

                           Total Energy        Delta E     RMS |[F,P]|

   @DF-RKS iter SAD: -1187.90345763888149   -1.18790e+03   0.00000e+00 
   @DF-RKS iter   1: -1187.73447388556042    1.68984e-01   2.87497e-03 DIIS
   @DF-RKS iter   2: -1187.78895838025028   -5.44845e-02   2.91851e-03 DIIS
   @DF-RKS iter   3: -1188.30443558034972   -5.15477e-01   6.64387e-04 DIIS
   @DF-RKS iter   4: -1188.32949130145107   -2.50557e-02   2.24620e-04 DIIS
   @DF-RKS iter   5: -1188.33310702922699   -3.61573e-03   5.98723e-05 DIIS
   @DF-RKS iter   6: -1188.33350705153953   -4.00022e-04   1.86847e-05 DIIS
   @DF-RKS iter   7: -1188.33356108226894   -5.40307e-05   7.93480e-06 DIIS
   @DF-RKS iter   8: -1188.33357781058203   -1.67283e-05   3.19956e-06 DIIS
   @DF-RKS iter   9: -1188.33358117873013   -3.36815e-06   1.46186e-06 DIIS
   @DF-RKS iter  10: -1188.33358152519327   -3.46463e-07   5.89658e-07 DIIS
  Energy and wave function converged.


  ==> Post-Iterations <==

    Orbital Energies [Eh]
    ---------------------

    Doubly Occupied:                                                      

       1A    -89.047602     2A    -24.843247     3A    -24.841728  
       4A    -19.274793     5A    -19.263721     6A    -14.516565  
       7A    -10.486212     8A    -10.438167     9A    -10.414381  
      10A    -10.390839    11A    -10.368270    12A    -10.337724  
      13A    -10.334945    14A    -10.333673    15A    -10.331336  
      16A    -10.324586    17A     -8.088213    18A     -6.037735  
      19A     -6.033444    20A     -6.027150    21A     -1.392978  
      22A     -1.331321    23A     -1.194602    24A     -1.184841  
      25A     -1.099198    26A     -1.005726    27A     -0.942561  
      28A     -0.907582    29A     -0.888970    30A     -0.868417  
      31A     -0.796739    32A     -0.766935    33A     -0.755117  
      34A     -0.744695    35A     -0.698847    36A     -0.682792  
      37A     -0.672843    38A     -0.646512    39A     -0.631509  
      40A     -0.593706    41A     -0.586854    42A     -0.572543  
      43A     -0.564795    44A     -0.561286    45A     -0.558453  
      46A     -0.550303    47A     -0.545732    48A     -0.536800  
      49A     -0.523679    50A     -0.516384    51A     -0.511395  
      52A     -0.500660    53A     -0.497894    54A     -0.483105  
      55A     -0.476660    56A     -0.445029    57A     -0.428928  
      58A     -0.397769    59A     -0.391424    60A     -0.367349  
      61A     -0.342275    62A     -0.322120  

    Virtual:                                                              

      63A     -0.045090    64A      0.011919    65A      0.027232  
      66A      0.034269    67A      0.045825    68A      0.050669  
      69A      0.058402    70A      0.065404    71A      0.068545  
      72A      0.072463    73A      0.081235    74A      0.089346  
      75A      0.096486    76A      0.099966    77A      0.105361  
      78A      0.107119    79A      0.110053    80A      0.121537  
      81A      0.124365    82A      0.127312    83A      0.132363  
      84A      0.134750    85A      0.143191    86A      0.148800  
      87A      0.151640    88A      0.152359    89A      0.159235  
      90A      0.166493    91A      0.168622    92A      0.173171  
      93A      0.173695    94A      0.177926    95A      0.183919  
      96A      0.187899    97A      0.190109    98A      0.192435  
      99A      0.198145   100A      0.200455   101A      0.208760  
     102A      0.211002   103A      0.214360   104A      0.220386  
     105A      0.221646   106A      0.226075   107A      0.228726  
     108A      0.237305   109A      0.238773   110A      0.244074  
     111A      0.251268   112A      0.255748   113A      0.262250  
     114A      0.262827   115A      0.269938   116A      0.271014  
     117A      0.280508   118A      0.283151   119A      0.287391  
     120A      0.290399   121A      0.295886   122A      0.298120  
     123A      0.305081   124A      0.306946   125A      0.315430  
     126A      0.316564   127A      0.321284   128A      0.325020  
     129A      0.326553   130A      0.340297   131A      0.344777  
     132A      0.351693   133A      0.353834   134A      0.355795  
     135A      0.363418   136A      0.367446   137A      0.372278  
     138A      0.379461   139A      0.386320   140A      0.389509  
     141A      0.392465   142A      0.396798   143A      0.404394  
     144A      0.414307   145A      0.419918   146A      0.424178  
     147A      0.438623   148A      0.446466   149A      0.452873  
     150A      0.459014   151A      0.463905   152A      0.466010  
     153A      0.471554   154A      0.484131   155A      0.491774  
     156A      0.499204   157A      0.502701   158A      0.519448  
     159A      0.527562   160A      0.540598   161A      0.549348  
     162A      0.556770   163A      0.566660   164A      0.569008  
     165A      0.584158   166A      0.596363   167A      0.608412  
     168A      0.616076   169A      0.630542   170A      0.634232  
     171A      0.643961   172A      0.652751   173A      0.666400  
     174A      0.678133   175A      0.682077   176A      0.689379  
     177A      0.702447   178A      0.715651   179A      0.725869  
     180A      0.735024   181A      0.744075   182A      0.745774  
     183A      0.749828   184A      0.753453   185A      0.755575  
     186A      0.770257   187A      0.783254   188A      0.792764  
     189A      0.799493   190A      0.806303   191A      0.816557  
     192A      0.820379   193A      0.836674   194A      0.842146  
     195A      0.853525   196A      0.869693   197A      0.879779  
     198A      0.881423   199A      0.908091   200A      0.920232  
     201A      0.929660   202A      0.947424   203A      0.951974  
     204A      0.966228   205A      0.974062   206A      0.980026  
     207A      0.991810   208A      1.004922   209A      1.009042  
     210A      1.021478   211A      1.029255   212A      1.043716  
     213A      1.064162   214A      1.074490   215A      1.090277  
     216A      1.108622   217A      1.121066   218A      1.126168  
     219A      1.145456   220A      1.177613   221A      1.179292  
     222A      1.198646   223A      1.207059   224A      1.214868  
     225A      1.223718   226A      1.230714   227A      1.250401  
     228A      1.265313   229A      1.273314   230A      1.283864  
     231A      1.295537   232A      1.330935   233A      1.336457  
     234A      1.340569   235A      1.355951   236A      1.376647  
     237A      1.394535   238A      1.435016   239A      1.485945  
     240A      1.506224   241A      1.518066   242A      1.526977  
     243A      1.540910   244A      1.548356   245A      1.559365  
     246A      1.565292   247A      1.576336   248A      1.592686  
     249A      1.597201   250A      1.607036   251A      1.615976  
     252A      1.626008   253A      1.633690   254A      1.647564  
     255A      1.658865   256A      1.674857   257A      1.680741  
     258A      1.692809   259A      1.713927   260A      1.727068  
     261A      1.735797   262A      1.755500   263A      1.759537  
     264A      1.766671   265A      1.787573   266A      1.801319  
     267A      1.817648   268A      1.828784   269A      1.835682  
     270A      1.852653   271A      1.870056   272A      1.875409  
     273A      1.901332   274A      1.928516   275A      1.943576  
     276A      1.961308   277A      1.986444   278A      1.992017  
     279A      1.994760   280A      2.020033   281A      2.022186  
     282A      2.040465   283A      2.061560   284A      2.069224  
     285A      2.080472   286A      2.094277   287A      2.109344  
     288A      2.126828   289A      2.141147   290A      2.161846  
     291A      2.187761   292A      2.191853   293A      2.231371  
     294A      2.244769   295A      2.255488   296A      2.282874  
     297A      2.309253   298A      2.321531   299A      2.338914  
     300A      2.351722   301A      2.421940   302A      2.486921  
     303A      2.506124   304A      2.525015   305A      2.533995  
     306A      2.550169   307A      2.585287   308A      2.600301  
     309A      2.619350   310A      2.637905   311A      2.653421  
     312A      2.708433   313A      2.756470   314A      2.762328  
     315A      2.782095   316A      2.804990   317A      2.805724  
     318A      2.823088   319A      2.831938   320A      2.846888  
     321A      2.859742   322A      2.881239   323A      2.892026  
     324A      2.910379   325A      2.927741   326A      2.942709  
     327A      2.967383   328A      2.972091   329A      3.001351  
     330A      3.029261   331A      3.046262   332A      3.056316  
     333A      3.074118   334A      3.083216   335A      3.107196  
     336A      3.145955   337A      3.166985   338A      3.200100  
     339A      3.280391   340A      3.286870   341A      3.312042  
     342A      3.367728   343A      3.409949   344A      3.428826  
     345A      3.437005   346A      3.480378   347A      3.531066  
     348A      3.553405   349A      3.591240   350A      3.630224  
     351A      3.645539   352A      3.683947   353A      3.699149  
     354A      3.757450   355A      3.806798   356A      3.814103  
     357A      3.843885   358A      3.855757   359A      3.870249  
     360A      3.892928   361A      3.931624   362A      3.946922  
     363A      3.965139   364A      3.999824   365A      4.023651  
     366A      4.082338   367A      4.155120   368A      4.179964  
     369A      4.243018   370A      4.270486   371A      4.347823  
     372A      4.492129   373A      4.821918   374A      4.887501  
     375A      4.915589   376A      5.047677   377A      5.165743  
     378A      5.172247   379A      5.176030   380A      5.308039  
     381A      5.317982   382A      5.826385   383A      5.871744  
     384A      6.484708   385A      6.502479   386A      6.521851  
     387A      6.533490   388A      6.650973   389A      6.907830  
     390A      8.089766   391A     17.462107   392A     17.605763  
     393A     17.645356   394A     23.629639   395A     23.747744  
     396A     23.966054   397A     23.999063   398A     24.014978  
     399A     24.028799   400A     24.036536   401A     24.134417  
     402A     24.187189   403A     24.276411   404A     35.750619  
     405A     50.127625   406A     50.144740   407A     66.918016  
     408A     66.958748   409A    189.350377  

    Final Occupation by Irrep:
              A 
    DOCC [    62 ]

  @DF-RKS Final Energy: -1188.33358152519327

   => Energetics <=

    Nuclear Repulsion Energy =           1192.0520201612141591
    One-Electron Energy =               -3999.0555568984709680
    Two-Electron Energy =                1708.4210056016522685
    DFT Exchange-Correlation Energy =     -89.7372292073691682
    Empirical Dispersion Energy =          -0.0138211822197999
    VV10 Nonlocal Energy =                  0.0000000000000000
    Total Energy =                      -1188.3335815251932672

Computation Completed


Properties will be evaluated at   0.000000,   0.000000,   0.000000 [a0]

Properties computed using the SCF density matrix

  Nuclear Dipole Moment: [e a0]
     X:    25.6623      Y:     0.0463      Z:    -3.0715

  Electronic Dipole Moment: [e a0]
     X:   -22.7453      Y:    -0.3751      Z:     2.6206

  Dipole Moment: [e a0]
     X:     2.9170      Y:    -0.3287      Z:    -0.4509     Total:     2.9698

  Dipole Moment: [D]
     X:     7.4142      Y:    -0.8356      Z:    -1.1461     Total:     7.5486


*** tstop() called on cpu-spot-dy-c5n2xlarge-1 at Tue Jun 22 07:15:16 2021
Module time:
	user time   =     644.92 seconds =      10.75 minutes
	system time =      10.70 seconds =       0.18 minutes
	total time  =         89 seconds =       1.48 minutes
Total time:
	user time   =     644.92 seconds =      10.75 minutes
	system time =      10.70 seconds =       0.18 minutes
	total time  =         89 seconds =       1.48 minutes


Properties will be evaluated at   0.000000,   0.000000,   0.000000 [a0]
OEProp: No title given, name of density matrix used for the following properties is 'SCF density'


  Wiberg Bond Indices using Orthogonal Lowdin Orbitals:

  Irrep: 1 Size: 23 x 23

                 1                   2                   3                   4                   5

    1     0.00000000000000     1.31378667874281     0.10286138037295     0.02353448019256     0.01071648942852
    2     1.31378667874281     0.00000000000000     0.88347144152531     0.11229842905861     0.10642287410584
    3     0.10286138037295     0.88347144152531     0.00000000000000     1.31111820832339     1.40745027196615
    4     0.02353448019256     0.11229842905861     1.31111820832339     0.00000000000000     0.13711005100154
    5     0.01071648942852     0.10642287410584     1.40745027196615     0.13711005100154     0.00000000000000
    6     0.03532619261765     0.07710675573447     0.89862652611388     0.11335243725550     0.10371397183012
    7     0.11799844746664     0.03670615318626     0.10170029337168     0.02284494046954     0.01181932335872
    8     0.01522197395818     0.00388929837491     0.01411038745841     0.00332360670144     0.00207435090466
    9     0.01507712804577     0.00550709670802     0.00258669841125     0.00062638034729     0.00043303242255
   10     0.01726343403533     0.00306082087773     0.00158411729354     0.00129303336008     0.00024208557634
   11     0.13246748942773     0.02590926178063     0.00454631547455     0.00123872549084     0.00042464527357
   12     1.18530735888246     0.09762045939544     0.03332955920364     0.01218072679170     0.00377559546877
   13     0.00275199355656     0.00087301615883     0.00059908673201     0.00052940365717     0.00009328184748
   14     0.00046062604509     0.00015824583029     0.00008673148967     0.00005156412211     0.00001547972178
   15     0.24431644527696     2.29875206459672     0.15040389963634     0.02800176796120     0.04354960356424
   16     0.00461483915881     0.01792010120562     0.15818801727069     0.03115920778032     0.04596506492549
   17     0.00073710179804     0.00023395983387     0.00049220858506     0.00005020079058     0.00009008078161
   18     0.00128400441154     0.00049119056091     0.00208864120353     0.00034038925693     0.00040935275206
   19     0.91438114599407     0.07271849300372     0.01391950468728     0.00155231988097     0.00206757699859
   20     0.02297604615202     0.00225485792276     0.00074747403053     0.00010637976570     0.00012445547555
   21     0.00005326524941     0.00002082824912     0.00003344584100     0.00001450802106     0.00000500903693
   22     0.00008192532879     0.00003565388898     0.00002187910106     0.00001529012455     0.00000448049181
   23     0.00007442168446     0.00002454390465     0.00001042623864     0.00000547866388     0.00000165758062

                 6                   7                   8                   9                  10

    1     0.03532619261765     0.11799844746664     0.01522197395818     0.01507712804577     0.01726343403533
    2     0.07710675573447     0.03670615318626     0.00388929837491     0.00550709670802     0.00306082087773
    3     0.89862652611388     0.10170029337168     0.01411038745841     0.00258669841125     0.00158411729354
    4     0.11335243725550     0.02284494046954     0.00332360670144     0.00062638034729     0.00129303336008
    5     0.10371397183012     0.01181932335872     0.00207435090466     0.00043303242255     0.00024208557634
    6     0.00000000000000     1.05247533517641     0.11963287220776     0.01932463479485     0.01492027309804
    7     1.05247533517641     0.00000000000000     1.34693912967786     0.13164353775540     0.11093554795675
    8     0.11963287220776     1.34693912967786     0.00000000000000     1.50087187207558     0.13543970407863
    9     0.01932463479485     0.13164353775540     1.50087187207558     0.00000000000000     1.38405772820956
   10     0.01492027309804     0.11093554795675     0.13543970407863     1.38405772820956     0.00000000000000
   11     0.01547133668028     0.11976879746950     0.12264355456127     0.12747784468778     1.42995703592430
   12     0.11430022833878     1.28094773683938     0.12385736601797     0.11159284656402     0.13067610511306
   13     0.00480826100831     0.01854040134511     0.02433447800593     0.14337839219423     1.29018028109264
   14     0.00053933695459     0.00304279815926     0.00452732456766     0.04563398258380     0.08451272685518
   15     0.01706307992146     0.00917829751798     0.00114936248769     0.00464439513294     0.00196594353272
   16     2.32866329544305     0.16202713413191     0.07186577754041     0.00573547665848     0.01562593674328
   17     0.00148009554560     0.01239503241812     0.08277110719102     0.85996248649572     0.07482061580495
   18     0.02013387701436     0.07726963463733     0.85342733663240     0.08061648500097     0.01213302199955
   19     0.00273370064305     0.01278476159854     0.00170838645028     0.00142578202846     0.00193624181463
   20     0.00172379069353     0.01152726450173     0.00561051105643     0.01253447684165     0.07562978677219
   21     0.00018081463679     0.00078891317991     0.00136619678586     0.01467991318866     0.01265316505776
   22     0.00011331432537     0.00060638689149     0.00076973248821     0.00944695595262     0.01646624392066
   23     0.00006064175292     0.00033986748822     0.00041734057818     0.00295297835409     0.01263450413945

                11                  12                  13                  14                  15

    1     0.13246748942773     1.18530735888246     0.00275199355656     0.00046062604509     0.24431644527696
    2     0.02590926178063     0.09762045939544     0.00087301615883     0.00015824583029     2.29875206459672
    3     0.00454631547455     0.03332955920364     0.00059908673201     0.00008673148967     0.15040389963634
    4     0.00123872549084     0.01218072679170     0.00052940365717     0.00005156412211     0.02800176796120
    5     0.00042464527357     0.00377559546877     0.00009328184748     0.00001547972178     0.04354960356424
    6     0.01547133668028     0.11430022833878     0.00480826100831     0.00053933695459     0.01706307992146
    7     0.11976879746950     1.28094773683938     0.01854040134511     0.00304279815926     0.00917829751798
    8     0.12264355456127     0.12385736601797     0.02433447800593     0.00452732456766     0.00114936248769
    9     0.12747784468778     0.11159284656402     0.14337839219423     0.04563398258380     0.00464439513294
   10     1.42995703592430     0.13067610511306     1.29018028109264     0.08451272685518     0.00196594353272
   11     0.00000000000000     1.38227422205743     0.17882166423572     0.02142367040707     0.01165310339658
   12     1.38227422205743     0.00000000000000     0.02350022534783     0.00303460571009     0.03039761576284
   13     0.17882166423572     0.02350022534783     0.00000000000000     1.24192529933187     0.00063250738157
   14     0.02142367040707     0.00303460571009     1.24192529933187     0.00000000000000     0.00010508009132
   15     0.01165310339658     0.03039761576284     0.00063250738157     0.00010508009132     0.00000000000000
   16     0.00458346816220     0.04116525134222     0.00494518043827     0.00060522417334     0.00702539252039
   17     0.01213118648207     0.00536577100289     0.02137021434346     0.01833215413824     0.00017422848690
   18     0.00532395401503     0.01197188638742     0.00223761798215     0.00041209933062     0.00018656892724
   19     0.02000506678166     0.06521839695940     0.00035688263324     0.00007139643154     0.02780964444796
   20     0.85104992319175     0.07780263060807     0.03251694050264     0.00242876593591     0.00063629806451
   21     0.00237421276545     0.00032073761039     0.06638184723469     0.94131333245289     0.00000837215482
   22     0.00273574897768     0.00053670482128     0.06346846837154     0.94146844628752     0.00003013090669
   23     0.00201914585577     0.00041709931835     0.07253994382954     0.94385948293195     0.00001155226836

                16                  17                  18                  19                  20

    1     0.00461483915881     0.00073710179804     0.00128400441154     0.91438114599407     0.02297604615202
    2     0.01792010120562     0.00023395983387     0.00049119056091     0.07271849300372     0.00225485792276
    3     0.15818801727069     0.00049220858506     0.00208864120353     0.01391950468728     0.00074747403053
    4     0.03115920778032     0.00005020079058     0.00034038925693     0.00155231988097     0.00010637976570
    5     0.04596506492549     0.00009008078161     0.00040935275206     0.00206757699859     0.00012445547555
    6     2.32866329544305     0.00148009554560     0.02013387701436     0.00273370064305     0.00172379069353
    7     0.16202713413191     0.01239503241812     0.07726963463733     0.01278476159854     0.01152726450173
    8     0.07186577754041     0.08277110719102     0.85342733663240     0.00170838645028     0.00561051105643
    9     0.00573547665848     0.85996248649572     0.08061648500097     0.00142578202846     0.01253447684165
   10     0.01562593674328     0.07482061580495     0.01213302199955     0.00193624181463     0.07562978677219
   11     0.00458346816220     0.01213118648207     0.00532395401503     0.02000506678166     0.85104992319175
   12     0.04116525134222     0.00536577100289     0.01197188638742     0.06521839695940     0.07780263060807
   13     0.00494518043827     0.02137021434346     0.00223761798215     0.00035688263324     0.03251694050264
   14     0.00060522417334     0.01833215413824     0.00041209933062     0.00007139643154     0.00242876593591
   15     0.00702539252039     0.00017422848690     0.00018656892724     0.02780964444796     0.00063629806451
   16     0.00000000000000     0.00035150204013     0.01910500238308     0.00049694510508     0.00059649130324
   17     0.00035150204013     0.00000000000000     0.01025475654456     0.00010809135810     0.00116878786196
   18     0.01910500238308     0.01025475654456     0.00000000000000     0.00060122412633     0.00048590746589
   19     0.00049694510508     0.00010809135810     0.00060122412633     0.00000000000000     0.00624592112405
   20     0.00059649130324     0.00116878786196     0.00048590746589     0.00624592112405     0.00000000000000
   21     0.00016646874029     0.00853539409146     0.00010552060709     0.00001102919363     0.00052142521159
   22     0.00013234882739     0.00266215633867     0.00004687143665     0.00001765013688     0.00026292484483
   23     0.00007144008736     0.00099550521836     0.00004662338001     0.00000833618965     0.00023188838693

                21                  22                  23

    1     0.00005326524941     0.00008192532879     0.00007442168446
    2     0.00002082824912     0.00003565388898     0.00002454390465
    3     0.00003344584100     0.00002187910106     0.00001042623864
    4     0.00001450802106     0.00001529012455     0.00000547866388
    5     0.00000500903693     0.00000448049181     0.00000165758062
    6     0.00018081463679     0.00011331432537     0.00006064175292
    7     0.00078891317991     0.00060638689149     0.00033986748822
    8     0.00136619678586     0.00076973248821     0.00041734057818
    9     0.01467991318866     0.00944695595262     0.00295297835409
   10     0.01265316505776     0.01646624392066     0.01263450413945
   11     0.00237421276545     0.00273574897768     0.00201914585577
   12     0.00032073761039     0.00053670482128     0.00041709931835
   13     0.06638184723469     0.06346846837154     0.07253994382954
   14     0.94131333245289     0.94146844628752     0.94385948293195
   15     0.00000837215482     0.00003013090669     0.00001155226836
   16     0.00016646874029     0.00013234882739     0.00007144008736
   17     0.00853539409146     0.00266215633867     0.00099550521836
   18     0.00010552060709     0.00004687143665     0.00004662338001
   19     0.00001102919363     0.00001765013688     0.00000833618965
   20     0.00052142521159     0.00026292484483     0.00023188838693
   21     0.00000000000000     0.03856677557170     0.04175395869262
   22     0.03856677557170     0.00000000000000     0.04157216836188
   23     0.04175395869262     0.04157216836188     0.00000000000000



  Atomic Valences: 

 #  #
 Irrep: 1
      1:  4.1612929
      2:  5.0592622
      3:  5.0879765
      4:  1.8007475
      5:  1.8765087
      6:  4.9417508
      7:  4.6422797
      8:  4.4359517
      9:  4.4802101
     10:  4.8279884
     11:  4.4743004
     12:  4.7355931
     13:  3.1947854
     14:  4.2540084
     15:  2.8776954
     16:  2.9210096
     17:  1.1144826
     18:  1.0989720
     19:  1.1461785
     20:  1.1071829
     21:  1.1298551
     22:  1.1190623
     23:  1.1200490


    Psi4 stopped on: Tuesday, 22 June 2021 07:15AM
    Psi4 wall time for execution: 0:01:29.02

*** Psi4 exiting successfully. Buy a developer a beer!
