
    -----------------------------------------------------------------------
          Psi4: An Open-Source Ab Initio Electronic Structure Package
                               Psi4 1.3.2 release

                         Git: Rev {HEAD} ecbda83 


    R. M. Parrish, L. A. Burns, D. G. A. Smith, A. C. Simmonett,
    A. E. DePrince III, E. G. Hohenstein, U. Bozkaya, A. Yu. Sokolov,
    R. Di Remigio, R. M. Richard, J. F. Gonthier, A. M. James,
    H. R. McAlexander, A. Kumar, M. Saitow, X. Wang, B. P. Pritchard,
    P. Verma, H. F. Schaefer III, K. Patkowski, R. A. King, E. F. Valeev,
    F. A. Evangelista, J. M. Turney, T. D. Crawford, and C. D. Sherrill,
    J. Chem. Theory Comput. 13(7) pp 3185--3197 (2017).
    (doi: 10.1021/acs.jctc.7b00174)


                         Additional Contributions by
    P. Kraus, H. Kruse, M. H. Lechner, M. C. Schieber, R. A. Shaw,
    A. Alenaizan, R. Galvelis, Z. L. Glick, S. Lehtola, and J. P. Misiewicz

    -----------------------------------------------------------------------


    Psi4 started on: Tuesday, 22 June 2021 07:16AM

    Process ID: 31769
    Host:       cpu-spot-dy-c5n2xlarge-1
    PSIDATADIR: /fsx/users/francis/anaconda3/envs/poltype-dev/share/psi4
    Memory:     500.0 MiB
    Threads:    1
    
  ==> Input File <==

--------------------------------------------------------------------------
molecule { 
0 1
 N   -0.778464   -1.563868    0.194377
 C   -2.076570   -1.379090    0.592150
 C   -2.439654    0.093494    0.881232
 F   -3.758400    0.265909    0.791369
 F   -2.058220    0.322337    2.184616
 C   -1.680199    1.146189    0.038073
 C   -0.294162    0.776695   -0.298048
 C    0.607506    1.746068   -0.744572
 C    1.910092    1.403808   -1.073459
 C    2.320516    0.069148   -0.971381
 C    1.428119   -0.908128   -0.531883
 C    0.119272   -0.562211   -0.197203
 S    4.005766   -0.386981   -1.355886
 C    4.716940   -0.308636    0.320502
 O   -2.854191   -2.285095    0.776251
 O   -2.205205    2.198633   -0.239956
 H    2.611071    2.159044   -1.413105
 H    0.262863    2.772609   -0.822566
 H   -0.498567   -2.531862    0.092174
 H    1.754631   -1.942696   -0.466997
 H    4.705611    0.714509    0.702848
 H    4.181635   -0.971106    1.004462
 H    5.752913   -0.646276    0.235127
}
memory 16GB
set_num_threads(8)
psi4_io.set_default_path("/scratch/Psi4-ligand")
set freeze_core True
E, wfn = energy('wb97x-d/6-311++g**',return_wfn=True)
oeprop(wfn,"WIBERG_LOWDIN_INDICES")
clean()
--------------------------------------------------------------------------

  Memory set to  14.901 GiB by Python driver.
  Threads set to 8 by Python driver.

*** tstart() called on cpu-spot-dy-c5n2xlarge-1
*** at Tue Jun 22 07:16:57 2021

   => Loading Basis Set <=

    Name: 6-311++G**
    Role: ORBITAL
    Keyword: BASIS
    atoms 1             entry N          line   140 file /fsx/users/francis/anaconda3/envs/poltype-dev/share/psi4/basis/6-311ppgss.gbs 
    atoms 2-3, 6-12, 14 entry C          line   119 file /fsx/users/francis/anaconda3/envs/poltype-dev/share/psi4/basis/6-311ppgss.gbs 
    atoms 4-5           entry F          line   182 file /fsx/users/francis/anaconda3/envs/poltype-dev/share/psi4/basis/6-311ppgss.gbs 
    atoms 13            entry S          line   419 file /fsx/users/francis/anaconda3/envs/poltype-dev/share/psi4/basis/6-311ppgss.gbs 
    atoms 15-16         entry O          line   161 file /fsx/users/francis/anaconda3/envs/poltype-dev/share/psi4/basis/6-311ppgss.gbs 
    atoms 17-23         entry H          line    42 file /fsx/users/francis/anaconda3/envs/poltype-dev/share/psi4/basis/6-311ppgss.gbs 


         ---------------------------------------------------------
                                   SCF
               by Justin Turney, Rob Parrish, Andy Simmonett
                          and Daniel G. A. Smith
                              RKS Reference
                        8 Threads,  15258 MiB Core
         ---------------------------------------------------------

  ==> Geometry <==

    Molecular point group: c1
    Full point group: C1

    Geometry (in Angstrom), charge = 0, multiplicity = 1:

       Center              X                  Y                   Z               Mass       
    ------------   -----------------  -----------------  -----------------  -----------------
         N           -0.778464007780    -1.563868068800     0.194377021299    14.003074004430
         C           -2.076570007780    -1.379090068800     0.592150021299    12.000000000000
         C           -2.439654007780     0.093493931200     0.881232021299    12.000000000000
         F           -3.758400007780     0.265908931200     0.791369021299    18.998403162730
         F           -2.058220007780     0.322336931200     2.184616021299    18.998403162730
         C           -1.680199007780     1.146188931200     0.038073021299    12.000000000000
         C           -0.294162007780     0.776694931200    -0.298047978701    12.000000000000
         C            0.607505992220     1.746067931200    -0.744571978701    12.000000000000
         C            1.910091992220     1.403807931200    -1.073458978701    12.000000000000
         C            2.320515992220     0.069147931200    -0.971380978701    12.000000000000
         C            1.428118992220    -0.908128068800    -0.531882978701    12.000000000000
         C            0.119271992220    -0.562211068800    -0.197202978701    12.000000000000
         S            4.005765992220    -0.386981068800    -1.355885978701    31.972071174400
         C            4.716939992220    -0.308636068800     0.320502021299    12.000000000000
         O           -2.854191007780    -2.285095068800     0.776251021299    15.994914619570
         O           -2.205205007780     2.198632931200    -0.239955978701    15.994914619570
         H            2.611070992220     2.159043931200    -1.413104978701     1.007825032230
         H            0.262862992220     2.772608931200    -0.822565978701     1.007825032230
         H           -0.498567007780    -2.531862068800     0.092174021299     1.007825032230
         H            1.754630992220    -1.942696068800    -0.466996978701     1.007825032230
         H            4.705610992220     0.714508931200     0.702848021299     1.007825032230
         H            4.181634992220    -0.971106068800     1.004462021299     1.007825032230
         H            5.752912992220    -0.646276068800     0.235127021299     1.007825032230

  Running in c1 symmetry.

  Rotational constants: A =      0.03642  B =      0.00869  C =      0.00766 [cm^-1]
  Rotational constants: A =   1091.76750  B =    260.39549  C =    229.71704 [MHz]
  Nuclear repulsion = 1194.808152522654837

  Charge       = 0
  Multiplicity = 1
  Electrons    = 124
  Nalpha       = 62
  Nbeta        = 62

  ==> Algorithm <==

  SCF Algorithm Type is DF.
  DIIS enabled.
  MOM disabled.
  Fractional occupation disabled.
  Guess Type is SAD.
  Energy threshold   = 1.00e-06
  Density threshold  = 1.00e-06
  Integral threshold = 0.00e+00

  ==> Primary Basis <==

  Basis Set: 6-311++G**
    Blend: 6-311++G**
    Number of shells: 199
    Number of basis function: 409
    Number of Cartesian functions: 425
    Spherical Harmonics?: true
    Max angular momentum: 2

  ==> DFT Potential <==

   => Composite Functional: WB97X-D <= 

    wB97X-D Hyb-GGA Exchange-Correlation Functional

    J.-D. Chai and M. Head-Gordon, Phys. Chem. Chem. Phys. 10, 6615 (2008)

    Deriv               =              1
    GGA                 =           TRUE
    Meta                =          FALSE

    Exchange Hybrid     =           TRUE
    MP2 Hybrid          =          FALSE

   => Exchange-Correlation Functionals <=

    1.0000   wB97D range-separated functional

   => Exact (HF) Exchange <=

    0.7780            HF,LR [omega = 0.2000]
    0.2220               HF 

   => Molecular Quadrature <=

    Radial Scheme          =       TREUTLER
    Pruning Scheme         =           FLAT
    Nuclear Scheme         =       TREUTLER

    BS radius alpha        =              1
    Pruning alpha          =              1
    Radial Points          =             75
    Spherical Points       =            302
    Total Points           =         520867
    Total Blocks           =           3852
    Max Points             =            256
    Max Functions          =            323

   => WB97X-D: Empirical Dispersion <=

    Chai and Head-Gordon Dispersion Correction
    Chai, J.-D.; Head-Gordon, M. (2010), J. Chem. Phys., 132: 6615-6620

        s6 =       1.000000

   => Loading Basis Set <=

    Name: (6-311++G** AUX)
    Role: JKFIT
    Keyword: DF_BASIS_SCF
    atoms 1             entry N          line   224 file /fsx/users/francis/anaconda3/envs/poltype-dev/share/psi4/basis/aug-cc-pvtz-jkfit.gbs 
    atoms 2-3, 6-12, 14 entry C          line   162 file /fsx/users/francis/anaconda3/envs/poltype-dev/share/psi4/basis/aug-cc-pvtz-jkfit.gbs 
    atoms 4-5           entry F          line   348 file /fsx/users/francis/anaconda3/envs/poltype-dev/share/psi4/basis/aug-cc-pvtz-jkfit.gbs 
    atoms 13            entry S          line   730 file /fsx/users/francis/anaconda3/envs/poltype-dev/share/psi4/basis/aug-cc-pvtz-jkfit.gbs 
    atoms 15-16         entry O          line   286 file /fsx/users/francis/anaconda3/envs/poltype-dev/share/psi4/basis/aug-cc-pvtz-jkfit.gbs 
    atoms 17-23         entry H          line    70 file /fsx/users/francis/anaconda3/envs/poltype-dev/share/psi4/basis/aug-cc-pvtz-jkfit.gbs 

  ==> Pre-Iterations <==

   -------------------------------------------------------
    Irrep   Nso     Nmo     Nalpha   Nbeta   Ndocc  Nsocc
   -------------------------------------------------------
     A        409     409       0       0       0       0
   -------------------------------------------------------
    Total     409     409      62      62      62       0
   -------------------------------------------------------

  ==> Integral Setup <==

  ==> DiskDFJK: Density-Fitted J/K Matrices <==

    J tasked:                  Yes
    K tasked:                  Yes
    wK tasked:                 Yes
    Omega:               2.000E-01
    OpenMP threads:              8
    Integrals threads:           8
    Memory [MiB]:             7918
    Algorithm:                Core
    Integral Cache:           NONE
    Schwarz Cutoff:          1E-12
    Fitting Condition:       1E-10

   => Auxiliary Basis Set <=

  Basis Set: (6-311++G** AUX)
    Blend: AUG-CC-PVTZ-JKFIT
    Number of shells: 590
    Number of basis function: 2028
    Number of Cartesian functions: 2530
    Spherical Harmonics?: true
    Max angular momentum: 4

  Cached 100.0% of DFT collocation blocks in 3.443 [GiB].

  Minimum eigenvalue in the overlap matrix is 2.5283737915E-07.
  Using Symmetric Orthogonalization.

  SCF Guess: Superposition of Atomic Densities via on-the-fly atomic UHF.

  ==> Iterations <==

                           Total Energy        Delta E     RMS |[F,P]|

   @DF-RKS iter SAD: -1187.84877588985910   -1.18785e+03   0.00000e+00 
   @DF-RKS iter   1: -1187.79669337372911    5.20825e-02   2.78782e-03 DIIS
   @DF-RKS iter   2: -1187.84667883253860   -4.99855e-02   2.81831e-03 DIIS
   @DF-RKS iter   3: -1188.29973425723665   -4.53055e-01   7.07139e-04 DIIS
   @DF-RKS iter   4: -1188.32914716554751   -2.94129e-02   1.82656e-04 DIIS
   @DF-RKS iter   5: -1188.33137854927782   -2.23138e-03   5.13172e-05 DIIS
   @DF-RKS iter   6: -1188.33158002650907   -2.01477e-04   1.64298e-05 DIIS
   @DF-RKS iter   7: -1188.33160001542228   -1.99889e-05   5.19881e-06 DIIS
   @DF-RKS iter   8: -1188.33160335615844   -3.34074e-06   1.58919e-06 DIIS
   @DF-RKS iter   9: -1188.33160399668623   -6.40528e-07   8.49253e-07 DIIS
  Energy and wave function converged.


  ==> Post-Iterations <==

    Orbital Energies [Eh]
    ---------------------

    Doubly Occupied:                                                      

       1A    -89.037420     2A    -24.846894     3A    -24.845618  
       4A    -19.281001     5A    -19.266786     6A    -14.519551  
       7A    -10.489985     8A    -10.441149     9A    -10.419618  
      10A    -10.393358    11A    -10.363343    12A    -10.340598  
      13A    -10.336462    14A    -10.335303    15A    -10.331156  
      16A    -10.325657    17A     -8.077973    18A     -6.027549  
      19A     -6.023658    20A     -6.016430    21A     -1.396846  
      22A     -1.335000    23A     -1.197662    24A     -1.190755  
      25A     -1.102274    26A     -1.006309    27A     -0.940207  
      28A     -0.906983    29A     -0.891271    30A     -0.867035  
      31A     -0.791783    32A     -0.770935    33A     -0.758453  
      34A     -0.742276    35A     -0.701522    36A     -0.684334  
      37A     -0.676488    38A     -0.648841    39A     -0.633080  
      40A     -0.595688    41A     -0.585211    42A     -0.575972  
      43A     -0.566330    44A     -0.561476    45A     -0.560578  
      46A     -0.552376    47A     -0.541231    48A     -0.533545  
      49A     -0.529148    50A     -0.521113    51A     -0.517127  
      52A     -0.502901    53A     -0.498602    54A     -0.481499  
      55A     -0.477382    56A     -0.443691    57A     -0.426152  
      58A     -0.401016    59A     -0.373183    60A     -0.370086  
      61A     -0.341203    62A     -0.335222  

    Virtual:                                                              

      63A     -0.050560    64A      0.009393    65A      0.027489  
      66A      0.037434    67A      0.041589    68A      0.047639  
      69A      0.058437    70A      0.063997    71A      0.068507  
      72A      0.072272    73A      0.078673    74A      0.086809  
      75A      0.088014    76A      0.098521    77A      0.102714  
      78A      0.110523    79A      0.112103    80A      0.119742  
      81A      0.123407    82A      0.129878    83A      0.136013  
      84A      0.136578    85A      0.139210    86A      0.145389  
      87A      0.148616    88A      0.154181    89A      0.159729  
      90A      0.164608    91A      0.167386    92A      0.171779  
      93A      0.173813    94A      0.179863    95A      0.181970  
      96A      0.184572    97A      0.188432    98A      0.190730  
      99A      0.197311   100A      0.198662   101A      0.203338  
     102A      0.208103   103A      0.211897   104A      0.217512  
     105A      0.221311   106A      0.226474   107A      0.232775  
     108A      0.239442   109A      0.243513   110A      0.246908  
     111A      0.249975   112A      0.253984   113A      0.258485  
     114A      0.260474   115A      0.265028   116A      0.271700  
     117A      0.274325   118A      0.277794   119A      0.286034  
     120A      0.289877   121A      0.292926   122A      0.298555  
     123A      0.303188   124A      0.307514   125A      0.315170  
     126A      0.319364   127A      0.321790   128A      0.325540  
     129A      0.328806   130A      0.337172   131A      0.338573  
     132A      0.348873   133A      0.350916   134A      0.355367  
     135A      0.361336   136A      0.368343   137A      0.372421  
     138A      0.376087   139A      0.384023   140A      0.391268  
     141A      0.392095   142A      0.396564   143A      0.401979  
     144A      0.413326   145A      0.420901   146A      0.426361  
     147A      0.441260   148A      0.444906   149A      0.451723  
     150A      0.457590   151A      0.462150   152A      0.468342  
     153A      0.477078   154A      0.481634   155A      0.485071  
     156A      0.491058   157A      0.499621   158A      0.518127  
     159A      0.522540   160A      0.527468   161A      0.549639  
     162A      0.551178   163A      0.564409   164A      0.570420  
     165A      0.581252   166A      0.598799   167A      0.604348  
     168A      0.623306   169A      0.625314   170A      0.637135  
     171A      0.645390   172A      0.650057   173A      0.659634  
     174A      0.675347   175A      0.686315   176A      0.699015  
     177A      0.713799   178A      0.716169   179A      0.723909  
     180A      0.732171   181A      0.741980   182A      0.750174  
     183A      0.751739   184A      0.760803   185A      0.762521  
     186A      0.777603   187A      0.785079   188A      0.788788  
     189A      0.800828   190A      0.807547   191A      0.811640  
     192A      0.823229   193A      0.835012   194A      0.835210  
     195A      0.852111   196A      0.871163   197A      0.876443  
     198A      0.900400   199A      0.905864   200A      0.921422  
     201A      0.932335   202A      0.946030   203A      0.949454  
     204A      0.968413   205A      0.969165   206A      0.987331  
     207A      0.991759   208A      1.001757   209A      1.020594  
     210A      1.030525   211A      1.038538   212A      1.048142  
     213A      1.055186   214A      1.074482   215A      1.092581  
     216A      1.102592   217A      1.118598   218A      1.123504  
     219A      1.145539   220A      1.166764   221A      1.173156  
     222A      1.193127   223A      1.207090   224A      1.210501  
     225A      1.233493   226A      1.241116   227A      1.255060  
     228A      1.271807   229A      1.278791   230A      1.289731  
     231A      1.303465   232A      1.335088   233A      1.339185  
     234A      1.351785   235A      1.354138   236A      1.375234  
     237A      1.389814   238A      1.432301   239A      1.484299  
     240A      1.500315   241A      1.514357   242A      1.527551  
     243A      1.538614   244A      1.547315   245A      1.554482  
     246A      1.558716   247A      1.571870   248A      1.587893  
     249A      1.599353   250A      1.609025   251A      1.617261  
     252A      1.623625   253A      1.628854   254A      1.645394  
     255A      1.658038   256A      1.672178   257A      1.685393  
     258A      1.691086   259A      1.714403   260A      1.734159  
     261A      1.740997   262A      1.756101   263A      1.770595  
     264A      1.776948   265A      1.789854   266A      1.796057  
     267A      1.815086   268A      1.821065   269A      1.833566  
     270A      1.848889   271A      1.866711   272A      1.873343  
     273A      1.924119   274A      1.936239   275A      1.951691  
     276A      1.953650   277A      1.963955   278A      1.986631  
     279A      1.996046   280A      2.008070   281A      2.019939  
     282A      2.041724   283A      2.053459   284A      2.072680  
     285A      2.078430   286A      2.095831   287A      2.104401  
     288A      2.124800   289A      2.133740   290A      2.165174  
     291A      2.181776   292A      2.184557   293A      2.233287  
     294A      2.242735   295A      2.261849   296A      2.286435  
     297A      2.305118   298A      2.321242   299A      2.336349  
     300A      2.346897   301A      2.416933   302A      2.484818  
     303A      2.501253   304A      2.522947   305A      2.531829  
     306A      2.549161   307A      2.594251   308A      2.602233  
     309A      2.611322   310A      2.637260   311A      2.645584  
     312A      2.700043   313A      2.752685   314A      2.764405  
     315A      2.783180   316A      2.802056   317A      2.810077  
     318A      2.816552   319A      2.825827   320A      2.845778  
     321A      2.856977   322A      2.891468   323A      2.895742  
     324A      2.903960   325A      2.924873   326A      2.951124  
     327A      2.968238   328A      2.977533   329A      3.006265  
     330A      3.019871   331A      3.025557   332A      3.042671  
     333A      3.071458   334A      3.077251   335A      3.101845  
     336A      3.146210   337A      3.168751   338A      3.216889  
     339A      3.278041   340A      3.294492   341A      3.302966  
     342A      3.364760   343A      3.407341   344A      3.425521  
     345A      3.434135   346A      3.479283   347A      3.523473  
     348A      3.552169   349A      3.588190   350A      3.627508  
     351A      3.641366   352A      3.684224   353A      3.696841  
     354A      3.753591   355A      3.811527   356A      3.818713  
     357A      3.840520   358A      3.852958   359A      3.867577  
     360A      3.889716   361A      3.930462   362A      3.942792  
     363A      3.963228   364A      3.995540   365A      4.020128  
     366A      4.079723   367A      4.154044   368A      4.176607  
     369A      4.240899   370A      4.265746   371A      4.339146  
     372A      4.483662   373A      4.818766   374A      4.883480  
     375A      4.914569   376A      5.044075   377A      5.162316  
     378A      5.167642   379A      5.171860   380A      5.301646  
     381A      5.313775   382A      5.819684   383A      5.869894  
     384A      6.480005   385A      6.502742   386A      6.518196  
     387A      6.528501   388A      6.650181   389A      6.905877  
     390A      8.094539   391A     17.532604   392A     17.554915  
     393A     17.653126   394A     23.629162   395A     23.746473  
     396A     23.964953   397A     23.997487   398A     24.030819  
     399A     24.033307   400A     24.038919   401A     24.136230  
     402A     24.182593   403A     24.274867   404A     35.748381  
     405A     50.122205   406A     50.141247   407A     66.915922  
     408A     66.955601   409A    189.356157  

    Final Occupation by Irrep:
              A 
    DOCC [    62 ]

  @DF-RKS Final Energy: -1188.33160399668623

   => Energetics <=

    Nuclear Repulsion Energy =           1194.8081525226548365
    One-Electron Energy =               -4004.5071914523732630
    Two-Electron Energy =                1711.1121934190368847
    DFT Exchange-Correlation Energy =     -89.7309552248058964
    Empirical Dispersion Energy =          -0.0138032611986425
    VV10 Nonlocal Energy =                  0.0000000000000000
    Total Energy =                      -1188.3316039966862263

Computation Completed


Properties will be evaluated at   0.000000,   0.000000,   0.000000 [a0]

Properties computed using the SCF density matrix

  Nuclear Dipole Moment: [e a0]
     X:    23.1672      Y:    -0.9789      Z:    -3.4675

  Electronic Dipole Moment: [e a0]
     X:   -20.7428      Y:     0.6310      Z:     3.2817

  Dipole Moment: [e a0]
     X:     2.4245      Y:    -0.3479      Z:    -0.1857     Total:     2.4563

  Dipole Moment: [D]
     X:     6.1624      Y:    -0.8842      Z:    -0.4721     Total:     6.2434


*** tstop() called on cpu-spot-dy-c5n2xlarge-1 at Tue Jun 22 07:18:21 2021
Module time:
	user time   =     600.42 seconds =      10.01 minutes
	system time =       9.99 seconds =       0.17 minutes
	total time  =         84 seconds =       1.40 minutes
Total time:
	user time   =     600.42 seconds =      10.01 minutes
	system time =       9.99 seconds =       0.17 minutes
	total time  =         84 seconds =       1.40 minutes


Properties will be evaluated at   0.000000,   0.000000,   0.000000 [a0]
OEProp: No title given, name of density matrix used for the following properties is 'SCF density'


  Wiberg Bond Indices using Orthogonal Lowdin Orbitals:

  Irrep: 1 Size: 23 x 23

                 1                   2                   3                   4                   5

    1     0.00000000000000     1.31470850740213     0.10323668904290     0.01068416528950     0.02445665373036
    2     1.31470850740213     0.00000000000000     0.88374901119626     0.10600267408726     0.11203444801459
    3     0.10323668904290     0.88374901119626     0.00000000000000     1.41143904138111     1.30700997294943
    4     0.01068416528950     0.10600267408726     1.41143904138111     0.00000000000000     0.13719543128798
    5     0.02445665373036     0.11203444801459     1.30700997294943     0.13719543128798     0.00000000000000
    6     0.03553357826199     0.07750030298405     0.89860131448596     0.10365400134274     0.11403473723554
    7     0.11867658581896     0.03699901588621     0.10117656339527     0.01175908427796     0.02332213772020
    8     0.01513033765371     0.00392771886369     0.01411951232625     0.00206526635332     0.00354046277401
    9     0.01555469055014     0.00584517261329     0.00250495976189     0.00043717501857     0.00056177342112
   10     0.01699283803055     0.00300042336939     0.00161553612633     0.00024879045989     0.00139763389422
   11     0.13137232214823     0.02538344595734     0.00447054982977     0.00041342209878     0.00121213618239
   12     1.18290880624731     0.09776161118273     0.03363050779901     0.00379998082744     0.01303529173858
   13     0.00259895221288     0.00077298955096     0.00028436602983     0.00004425586731     0.00011370656911
   14     0.00044792177409     0.00011974889662     0.00011174685986     0.00001846601848     0.00010784708293
   15     0.24425648467336     2.29943778284979     0.15080647741674     0.04334641013879     0.02754161212009
   16     0.00460570156089     0.01816653099917     0.15813785026989     0.04572358305454     0.03122906382789
   17     0.00074251249106     0.00024397123846     0.00050280120394     0.00009249737762     0.00004951967097
   18     0.00127936300218     0.00048927204547     0.00208811959959     0.00040941052009     0.00035485205222
   19     0.91439695405266     0.07273914545699     0.01396881554172     0.00208193277649     0.00155592568644
   20     0.02265360374599     0.00220435853314     0.00073867995140     0.00012283049821     0.00010310234723
   21     0.00005124067394     0.00001904561678     0.00001444280098     0.00000277321521     0.00000704743799
   22     0.00015222940517     0.00003477359467     0.00001825479646     0.00000342455679     0.00001086606935
   23     0.00004230951138     0.00001385567866     0.00001181702105     0.00000171292219     0.00001218915918

                 6                   7                   8                   9                  10

    1     0.03553357826199     0.11867658581896     0.01513033765371     0.01555469055014     0.01699283803055
    2     0.07750030298405     0.03699901588621     0.00392771886369     0.00584517261329     0.00300042336939
    3     0.89860131448596     0.10117656339527     0.01411951232625     0.00250495976189     0.00161553612633
    4     0.10365400134274     0.01175908427796     0.00206526635332     0.00043717501857     0.00024879045989
    5     0.11403473723554     0.02332213772020     0.00354046277401     0.00056177342112     0.00139763389422
    6     0.00000000000000     1.04115053834089     0.11943847331250     0.01802816435810     0.01510895243235
    7     1.04115053834089     0.00000000000000     1.35755620094085     0.13090448307094     0.11608870008332
    8     0.11943847331250     1.35755620094085     0.00000000000000     1.48756225935955     0.13648121749518
    9     0.01802816435810     0.13090448307094     1.48756225935955     0.00000000000000     1.41254090275046
   10     0.01510895243235     0.11608870008332     0.13648121749518     1.41254090275046     0.00000000000000
   11     0.01486215542109     0.12067158478509     0.12853674206382     0.13119678228705     1.44535867729402
   12     0.11428547842053     1.28891757598226     0.12433916995849     0.11649088778635     0.13122160646438
   13     0.00148235446363     0.00915063683099     0.02075600015135     0.15586149381460     1.25373128836898
   14     0.00091933574116     0.00573525369964     0.00345317404104     0.03063558797213     0.08904136917856
   15     0.01738799629503     0.00958644001138     0.00121453156198     0.00507189060597     0.00186864019365
   16     2.34006268084968     0.15925326163413     0.07176894789035     0.00513137444652     0.01587099494388
   17     0.00148776800864     0.01260534548929     0.08213195900897     0.86382674738078     0.07685313524911
   18     0.02021699299629     0.07770935138499     0.85416555629807     0.08022629592973     0.01218882143042
   19     0.00274921276161     0.01278343589660     0.00169951629159     0.00143471403026     0.00189789480403
   20     0.00171697095093     0.01139604817236     0.00569161279420     0.01231244964697     0.07541856253230
   21     0.00007335806124     0.00045302979988     0.00071236232960     0.00669653179100     0.01499998509928
   22     0.00007399323424     0.00046066267494     0.00048285846911     0.00412358286803     0.01687834791621
   23     0.00009751928677     0.00061085551941     0.00036721745154     0.00243259555206     0.01297983118852

                11                  12                  13                  14                  15

    1     0.13137232214823     1.18290880624731     0.00259895221288     0.00044792177409     0.24425648467336
    2     0.02538344595734     0.09776161118273     0.00077298955096     0.00011974889662     2.29943778284979
    3     0.00447054982977     0.03363050779901     0.00028436602983     0.00011174685986     0.15080647741674
    4     0.00041342209878     0.00379998082744     0.00004425586731     0.00001846601848     0.04334641013879
    5     0.00121213618239     0.01303529173858     0.00011370656911     0.00010784708293     0.02754161212009
    6     0.01486215542109     0.11428547842053     0.00148235446363     0.00091933574116     0.01738799629503
    7     0.12067158478509     1.28891757598226     0.00915063683099     0.00573525369964     0.00958644001138
    8     0.12853674206382     0.12433916995849     0.02075600015135     0.00345317404104     0.00121453156198
    9     0.13119678228705     0.11649088778635     0.15586149381460     0.03063558797213     0.00507189060597
   10     1.44535867729402     0.13122160646438     1.25373128836898     0.08904136917856     0.00186864019365
   11     0.00000000000000     1.37326015987475     0.16051091118099     0.03633352695867     0.01109061827932
   12     1.37326015987475     0.00000000000000     0.02085373141894     0.00385667354515     0.03024209843033
   13     0.16051091118099     0.02085373141894     0.00000000000000     1.24123825927294     0.00025946751898
   14     0.03633352695867     0.00385667354515     1.24123825927294     0.00000000000000     0.00008790464066
   15     0.01109061827932     0.03024209843033     0.00025946751898     0.00008790464066     0.00000000000000
   16     0.00413152173025     0.04115420597595     0.00134419544135     0.00118509909272     0.00727696947835
   17     0.01265231669245     0.00551945787562     0.02888699285368     0.00445365427444     0.00017792610993
   18     0.00545515187433     0.01192621412776     0.00218638465392     0.00031456722332     0.00018702080276
   19     0.01990030728084     0.06510590355573     0.00036763698239     0.00009304447071     0.02767462565781
   20     0.84863677101792     0.07707185795511     0.02898824098806     0.00600890858233     0.00062516373149
   21     0.00417919279594     0.00039420617150     0.06786849520528     0.94423730088446     0.00001165080234
   22     0.01002340151005     0.00113145630664     0.06656565892328     0.94184479388953     0.00002714677897
   23     0.00265789123388     0.00035866727278     0.07025151807995     0.94756566403737     0.00000976904951

                16                  17                  18                  19                  20

    1     0.00460570156089     0.00074251249106     0.00127936300218     0.91439695405266     0.02265360374599
    2     0.01816653099917     0.00024397123846     0.00048927204547     0.07273914545699     0.00220435853314
    3     0.15813785026989     0.00050280120394     0.00208811959959     0.01396881554172     0.00073867995140
    4     0.04572358305454     0.00009249737762     0.00040941052009     0.00208193277649     0.00012283049821
    5     0.03122906382789     0.00004951967097     0.00035485205222     0.00155592568644     0.00010310234723
    6     2.34006268084968     0.00148776800864     0.02021699299629     0.00274921276161     0.00171697095093
    7     0.15925326163413     0.01260534548929     0.07770935138499     0.01278343589660     0.01139604817236
    8     0.07176894789035     0.08213195900897     0.85416555629807     0.00169951629159     0.00569161279420
    9     0.00513137444652     0.86382674738078     0.08022629592973     0.00143471403026     0.01231244964697
   10     0.01587099494388     0.07685313524911     0.01218882143042     0.00189789480403     0.07541856253230
   11     0.00413152173025     0.01265231669245     0.00545515187433     0.01990030728084     0.84863677101792
   12     0.04115420597595     0.00551945787562     0.01192621412776     0.06510590355573     0.07707185795511
   13     0.00134419544135     0.02888699285368     0.00218638465392     0.00036763698239     0.02898824098806
   14     0.00118509909272     0.00445365427444     0.00031456722332     0.00009304447071     0.00600890858233
   15     0.00727696947835     0.00017792610993     0.00018702080276     0.02767462565781     0.00062516373149
   16     0.00000000000000     0.00033250939666     0.01893136013285     0.00049362391046     0.00057847686303
   17     0.00033250939666     0.00000000000000     0.00996044460780     0.00011545167919     0.00119281965928
   18     0.01893136013285     0.00996044460780     0.00000000000000     0.00059856073199     0.00048037169314
   19     0.00049362391046     0.00011545167919     0.00059856073199     0.00000000000000     0.00612437164951
   20     0.00057847686303     0.00119281965928     0.00048037169314     0.00612437164951     0.00000000000000
   21     0.00007564961563     0.00118984592044     0.00006151357415     0.00001326757272     0.00042567478238
   22     0.00008018316119     0.00039953022034     0.00004407447145     0.00002377116775     0.00185999945462
   23     0.00013854814479     0.00022494764777     0.00004641403195     0.00000788753572     0.00032188251298

                21                  22                  23

    1     0.00005124067394     0.00015222940517     0.00004230951138
    2     0.00001904561678     0.00003477359467     0.00001385567866
    3     0.00001444280098     0.00001825479646     0.00001181702105
    4     0.00000277321521     0.00000342455679     0.00000171292219
    5     0.00000704743799     0.00001086606935     0.00001218915918
    6     0.00007335806124     0.00007399323424     0.00009751928677
    7     0.00045302979988     0.00046066267494     0.00061085551941
    8     0.00071236232960     0.00048285846911     0.00036721745154
    9     0.00669653179100     0.00412358286803     0.00243259555206
   10     0.01499998509928     0.01687834791621     0.01297983118852
   11     0.00417919279594     0.01002340151005     0.00265789123388
   12     0.00039420617150     0.00113145630664     0.00035866727278
   13     0.06786849520528     0.06656565892328     0.07025151807995
   14     0.94423730088446     0.94184479388953     0.94756566403737
   15     0.00001165080234     0.00002714677897     0.00000976904951
   16     0.00007564961563     0.00008018316119     0.00013854814479
   17     0.00118984592044     0.00039953022034     0.00022494764777
   18     0.00006151357415     0.00004407447145     0.00004641403195
   19     0.00001326757272     0.00002377116775     0.00000788753572
   20     0.00042567478238     0.00185999945462     0.00032188251298
   21     0.00000000000000     0.03875446587605     0.04142227460120
   22     0.03875446587605     0.00000000000000     0.04151297928110
   23     0.04142227460120     0.04151297928110     0.00000000000000



  Atomic Valences: 

 #  #
 Irrep: 1
      1:  4.1604824
      2:  5.0611538
      3:  5.0882370
      4:  1.8795463
      5:  1.7988864
      6:  4.9384659
      7:  4.6469668
      8:  4.4351411
      9:  4.4893805
     10:  4.8517841
     11:  4.4923096
     12:  4.7372655
     13:  3.1341175
     14:  4.2578098
     15:  2.8781886
     16:  2.9256723
     17:  1.1036422
     18:  1.0993201
     19:  1.1458260
     20:  1.1046728
     21:  1.1216634
     22:  1.1245065
     23:  1.1210883


    Psi4 stopped on: Tuesday, 22 June 2021 07:18AM
    Psi4 wall time for execution: 0:01:23.37

*** Psi4 exiting successfully. Buy a developer a beer!
