
    -----------------------------------------------------------------------
          Psi4: An Open-Source Ab Initio Electronic Structure Package
                               Psi4 1.3.2 release

                         Git: Rev {HEAD} ecbda83 


    R. M. Parrish, L. A. Burns, D. G. A. Smith, A. C. Simmonett,
    A. E. DePrince III, E. G. Hohenstein, U. Bozkaya, A. Yu. Sokolov,
    R. Di Remigio, R. M. Richard, J. F. Gonthier, A. M. James,
    H. R. McAlexander, A. Kumar, M. Saitow, X. Wang, B. P. Pritchard,
    P. Verma, H. F. Schaefer III, K. Patkowski, R. A. King, E. F. Valeev,
    F. A. Evangelista, J. M. Turney, T. D. Crawford, and C. D. Sherrill,
    J. Chem. Theory Comput. 13(7) pp 3185--3197 (2017).
    (doi: 10.1021/acs.jctc.7b00174)


                         Additional Contributions by
    P. Kraus, H. Kruse, M. H. Lechner, M. C. Schieber, R. A. Shaw,
    A. Alenaizan, R. Galvelis, Z. L. Glick, S. Lehtola, and J. P. Misiewicz

    -----------------------------------------------------------------------


    Psi4 started on: Monday, 21 June 2021 10:11PM

    Process ID: 17717
    Host:       cpu-spot-dy-c5n2xlarge-1
    PSIDATADIR: /fsx/users/francis/anaconda3/envs/poltype-dev/share/psi4
    Memory:     500.0 MiB
    Threads:    1
    
  ==> Input File <==

--------------------------------------------------------------------------
molecule { 
0 1
 N   -1.074049   -1.488231    0.150080
 C   -2.378614   -1.143323    0.387088
 C   -2.685223    0.390073    0.435333
 F   -3.624890    0.654129   -0.535704
 F   -3.246479    0.661774    1.663043
 C   -1.481357    1.372656    0.223968
 C   -0.146625    0.780400   -0.023738
 C    0.973619    1.615858   -0.227140
 C    2.244924    1.075983   -0.461243
 C    2.430423   -0.333035   -0.503357
 C    1.310235   -1.166396   -0.289193
 C    0.032078   -0.629922   -0.055403
 S    3.973159   -1.177723   -0.757802
 C    5.253626    0.104405   -0.826267
 O   -3.227861   -2.008547    0.544600
 O   -1.654470    2.587161    0.262811
 H    3.075224    1.765300   -0.606799
 H    0.823606    2.695658   -0.197023
 H   -0.941311   -2.490118    0.129822
 H    1.438732   -2.249922   -0.300763
 H    5.096407    0.729641   -1.710510
 H    5.214616    0.712294    0.082899
 H    6.232262   -0.380175   -0.895665
}
set optking { 
  frozen_dihedral = ("
    11 10 13 14
    9 10 13 14
    21 14 13 10
  ")
}
set {
  geom_maxiter 400
  g_convergence GAU_LOOSE
  dynamic_level 1
}
memory 16GB
set_num_threads(8)
psi4_io.set_default_path("/scratch/Psi4-ligand")
for _ in range(1):
  try:
    set opt_coordinates both
    optimize('wb97x-d/6-31+G*')
    break
  except OptimizationConvergenceError:
    break
  else:
    try:
      set opt_coordinates cartesian
      optimize('wb97x-d/6-31+G*')
      break
    except OptimizationConvergenceError:
      pass
clean()
--------------------------------------------------------------------------

  Memory set to  14.901 GiB by Python driver.
  Threads set to 8 by Python driver.
gradient() will perform analytic gradient computation.

*** tstart() called on cpu-spot-dy-c5n2xlarge-1
*** at Mon Jun 21 22:11:15 2021

   => Loading Basis Set <=

    Name: 6-31+G*
    Role: ORBITAL
    Keyword: BASIS
    atoms 1             entry N          line   138 file /fsx/users/francis/anaconda3/envs/poltype-dev/share/psi4/basis/6-31pgs.gbs 
    atoms 2-3, 6-12, 14 entry C          line   119 file /fsx/users/francis/anaconda3/envs/poltype-dev/share/psi4/basis/6-31pgs.gbs 
    atoms 4-5           entry F          line   176 file /fsx/users/francis/anaconda3/envs/poltype-dev/share/psi4/basis/6-31pgs.gbs 
    atoms 13            entry S          line   344 file /fsx/users/francis/anaconda3/envs/poltype-dev/share/psi4/basis/6-31pgs.gbs 
    atoms 15-16         entry O          line   157 file /fsx/users/francis/anaconda3/envs/poltype-dev/share/psi4/basis/6-31pgs.gbs 
    atoms 17-23         entry H          line    46 file /fsx/users/francis/anaconda3/envs/poltype-dev/share/psi4/basis/6-31pgs.gbs 


         ---------------------------------------------------------
                                   SCF
               by Justin Turney, Rob Parrish, Andy Simmonett
                          and Daniel G. A. Smith
                              RKS Reference
                        8 Threads,  15258 MiB Core
         ---------------------------------------------------------

  ==> Geometry <==

    Molecular point group: c1
    Full point group: C1

    Geometry (in Angstrom), charge = 0, multiplicity = 1:

       Center              X                  Y                   Z               Mass       
    ------------   -----------------  -----------------  -----------------  -----------------
         N           -1.037397378682    -1.493786486998     0.180529129447    14.003074004430
         C           -2.341962378682    -1.148878486998     0.417537129447    12.000000000000
         C           -2.648571378682     0.384517513002     0.465782129447    12.000000000000
         F           -3.588238378682     0.648573513002    -0.505254870553    18.998403162730
         F           -3.209827378682     0.656218513002     1.693492129447    18.998403162730
         C           -1.444705378682     1.367100513002     0.254417129447    12.000000000000
         C           -0.109973378682     0.774844513002     0.006711129447    12.000000000000
         C            1.010270621318     1.610302513002    -0.196690870553    12.000000000000
         C            2.281575621318     1.070427513002    -0.430793870553    12.000000000000
         C            2.467074621318    -0.338590486998    -0.472907870553    12.000000000000
         C            1.346886621318    -1.171951486998    -0.258743870553    12.000000000000
         C            0.068729621318    -0.635477486998    -0.024953870553    12.000000000000
         S            4.009810621318    -1.183278486998    -0.727352870553    31.972071174400
         C            5.290277621318     0.098849513002    -0.795817870553    12.000000000000
         O           -3.191209378682    -2.014102486998     0.575049129447    15.994914619570
         O           -1.617818378682     2.581605513002     0.293260129447    15.994914619570
         H            3.111875621318     1.759744513002    -0.576349870553     1.007825032230
         H            0.860257621318     2.690102513002    -0.166573870553     1.007825032230
         H           -0.904659378682    -2.495673486998     0.160271129447     1.007825032230
         H            1.475383621318    -2.255477486998    -0.270313870553     1.007825032230
         H            5.133058621318     0.724085513002    -1.680060870553     1.007825032230
         H            5.251267621318     0.706738513002     0.113348129447     1.007825032230
         H            6.268913621318    -0.385730486998    -0.865215870553     1.007825032230

  Running in c1 symmetry.

  Rotational constants: A =      0.03854  B =      0.00810  C =      0.00696 [cm^-1]
  Rotational constants: A =   1155.26257  B =    242.68849  C =    208.71362 [MHz]
  Nuclear repulsion = 1174.420531642164406

  Charge       = 0
  Multiplicity = 1
  Electrons    = 124
  Nalpha       = 62
  Nbeta        = 62

  ==> Algorithm <==

  SCF Algorithm Type is DF.
  DIIS enabled.
  MOM disabled.
  Fractional occupation disabled.
  Guess Type is SAD.
  Energy threshold   = 1.00e-08
  Density threshold  = 1.00e-08
  Integral threshold = 0.00e+00

  ==> Primary Basis <==

  Basis Set: 6-31+G*
    Blend: 6-31+G*
    Number of shells: 144
    Number of basis function: 322
    Number of Cartesian functions: 322
    Spherical Harmonics?: false
    Max angular momentum: 2

  ==> DFT Potential <==

   => Composite Functional: WB97X-D <= 

    wB97X-D Hyb-GGA Exchange-Correlation Functional

    J.-D. Chai and M. Head-Gordon, Phys. Chem. Chem. Phys. 10, 6615 (2008)

    Deriv               =              1
    GGA                 =           TRUE
    Meta                =          FALSE

    Exchange Hybrid     =           TRUE
    MP2 Hybrid          =          FALSE

   => Exchange-Correlation Functionals <=

    1.0000   wB97D range-separated functional

   => Exact (HF) Exchange <=

    0.7780            HF,LR [omega = 0.2000]
    0.2220               HF 

   => Molecular Quadrature <=

    Radial Scheme          =       TREUTLER
    Pruning Scheme         =           FLAT
    Nuclear Scheme         =       TREUTLER

    BS radius alpha        =              1
    Pruning alpha          =              1
    Radial Points          =             75
    Spherical Points       =            302
    Total Points           =         520855
    Total Blocks           =           3870
    Max Points             =            256
    Max Functions          =            288

   => WB97X-D: Empirical Dispersion <=

    Chai and Head-Gordon Dispersion Correction
    Chai, J.-D.; Head-Gordon, M. (2010), J. Chem. Phys., 132: 6615-6620

        s6 =       1.000000

   => Loading Basis Set <=

    Name: (6-31+G* AUX)
    Role: JKFIT
    Keyword: DF_BASIS_SCF
    atoms 1             entry N          line   252 file /fsx/users/francis/anaconda3/envs/poltype-dev/share/psi4/basis/heavy-aug-cc-pvdz-jkfit.gbs 
    atoms 2-3, 6-12, 14 entry C          line   194 file /fsx/users/francis/anaconda3/envs/poltype-dev/share/psi4/basis/heavy-aug-cc-pvdz-jkfit.gbs 
    atoms 4-5           entry F          line   368 file /fsx/users/francis/anaconda3/envs/poltype-dev/share/psi4/basis/heavy-aug-cc-pvdz-jkfit.gbs 
    atoms 13            entry S          line   730 file /fsx/users/francis/anaconda3/envs/poltype-dev/share/psi4/basis/heavy-aug-cc-pvdz-jkfit.gbs 
    atoms 15-16         entry O          line   310 file /fsx/users/francis/anaconda3/envs/poltype-dev/share/psi4/basis/heavy-aug-cc-pvdz-jkfit.gbs 
    atoms 17-23         entry H          line   116 file /fsx/users/francis/anaconda3/envs/poltype-dev/share/psi4/basis/heavy-aug-cc-pvdz-jkfit.gbs 

  ==> Pre-Iterations <==

   -------------------------------------------------------
    Irrep   Nso     Nmo     Nalpha   Nbeta   Ndocc  Nsocc
   -------------------------------------------------------
     A        322     322       0       0       0       0
   -------------------------------------------------------
    Total     322     322      62      62      62       0
   -------------------------------------------------------

  ==> Integral Setup <==

  ==> DiskDFJK: Density-Fitted J/K Matrices <==

    J tasked:                  Yes
    K tasked:                  Yes
    wK tasked:                 Yes
    Omega:               2.000E-01
    OpenMP threads:              8
    Integrals threads:           8
    Memory [MiB]:             8460
    Algorithm:                Core
    Integral Cache:           NONE
    Schwarz Cutoff:          1E-12
    Fitting Condition:       1E-10

   => Auxiliary Basis Set <=

  Basis Set: (6-31+G* AUX)
    Blend: HEAVY-AUG-CC-PVDZ-JKFIT
    Number of shells: 523
    Number of basis function: 1840
    Number of Cartesian functions: 1840
    Spherical Harmonics?: false
    Max angular momentum: 3

  Cached 100.0% of DFT collocation blocks in 2.914 [GiB].

  Minimum eigenvalue in the overlap matrix is 5.0186741540E-07.
  Using Symmetric Orthogonalization.

  SCF Guess: Superposition of Atomic Densities via on-the-fly atomic UHF.

  ==> Iterations <==

                           Total Energy        Delta E     RMS |[F,P]|

   @DF-RKS iter SAD: -1187.21132903667035   -1.18721e+03   0.00000e+00 
   @DF-RKS iter   1: -1187.53814687417048   -3.26818e-01   3.40164e-03 DIIS
   @DF-RKS iter   2: -1187.54896331375335   -1.08164e-02   3.70570e-03 DIIS
   @DF-RKS iter   3: -1188.08800881981870   -5.39046e-01   7.83584e-04 DIIS
   @DF-RKS iter   4: -1188.11220737908252   -2.41986e-02   2.67213e-04 DIIS
   @DF-RKS iter   5: -1188.11573010031339   -3.52272e-03   7.20344e-05 DIIS
   @DF-RKS iter   6: -1188.11612937615473   -3.99276e-04   2.36556e-05 DIIS
   @DF-RKS iter   7: -1188.11618989447038   -6.05183e-05   1.02282e-05 DIIS
   @DF-RKS iter   8: -1188.11620622748865   -1.63330e-05   3.93017e-06 DIIS
   @DF-RKS iter   9: -1188.11620903820176   -2.81071e-06   2.14807e-06 DIIS
   @DF-RKS iter  10: -1188.11620938370947   -3.45508e-07   7.22402e-07 DIIS
   @DF-RKS iter  11: -1188.11620943359344   -4.98840e-08   3.20526e-07 DIIS
   @DF-RKS iter  12: -1188.11620944377023   -1.01768e-08   1.47785e-07 DIIS
   @DF-RKS iter  13: -1188.11620944626679   -2.49656e-09   5.66545e-08 DIIS
   @DF-RKS iter  14: -1188.11620944654851   -2.81716e-10   2.44235e-08 DIIS
   @DF-RKS iter  15: -1188.11620944660672   -5.82077e-11   1.16309e-08 DIIS
   @DF-RKS iter  16: -1188.11620944661604   -9.32232e-12   6.23055e-09 DIIS
  Energy and wave function converged.


  ==> Post-Iterations <==

    Orbital Energies [Eh]
    ---------------------

    Doubly Occupied:                                                      

       1A    -89.085991     2A    -24.873198     3A    -24.872826  
       4A    -19.304853     5A    -19.293304     6A    -14.542275  
       7A    -10.510187     8A    -10.458097     9A    -10.435206  
      10A    -10.411042    11A    -10.393603    12A    -10.358957  
      13A    -10.355361    14A    -10.352916    15A    -10.352667  
      16A    -10.347253    17A     -8.103337    18A     -6.054071  
      19A     -6.049538    20A     -6.043498    21A     -1.381417  
      22A     -1.325036    23A     -1.188636    24A     -1.174577  
      25A     -1.091699    26A     -0.999436    27A     -0.940794  
      28A     -0.904118    29A     -0.885826    30A     -0.869237  
      31A     -0.797904    32A     -0.763428    33A     -0.750405  
      34A     -0.744102    35A     -0.693168    36A     -0.678384  
      37A     -0.665626    38A     -0.644049    39A     -0.627816  
      40A     -0.589171    41A     -0.583306    42A     -0.564511  
      43A     -0.561758    44A     -0.556083    45A     -0.553285  
      46A     -0.552582    47A     -0.548724    48A     -0.535789  
      49A     -0.522848    50A     -0.516095    51A     -0.506464  
      52A     -0.498661    53A     -0.490718    54A     -0.485658  
      55A     -0.474630    56A     -0.438831    57A     -0.430088  
      58A     -0.395704    59A     -0.394990    60A     -0.367433  
      61A     -0.339533    62A     -0.318656  

    Virtual:                                                              

      63A     -0.046515    64A      0.011628    65A      0.039346  
      66A      0.047357    67A      0.052178    68A      0.064947  
      69A      0.066659    70A      0.074634    71A      0.080230  
      72A      0.088101    73A      0.092307    74A      0.094682  
      75A      0.104990    76A      0.111466    77A      0.114742  
      78A      0.116761    79A      0.118599    80A      0.133739  
      81A      0.136811    82A      0.138203    83A      0.145962  
      84A      0.148205    85A      0.155244    86A      0.161711  
      87A      0.172255    88A      0.173748    89A      0.177578  
      90A      0.180342    91A      0.183058    92A      0.189253  
      93A      0.192319    94A      0.196872    95A      0.203454  
      96A      0.205349    97A      0.214416    98A      0.217365  
      99A      0.219681   100A      0.227093   101A      0.233996  
     102A      0.238364   103A      0.239492   104A      0.244140  
     105A      0.245483   106A      0.247595   107A      0.254374  
     108A      0.261734   109A      0.264226   110A      0.272365  
     111A      0.276936   112A      0.284315   113A      0.284849  
     114A      0.288412   115A      0.297862   116A      0.300954  
     117A      0.306844   118A      0.314509   119A      0.316599  
     120A      0.326444   121A      0.329989   122A      0.332242  
     123A      0.336159   124A      0.341077   125A      0.354254  
     126A      0.360813   127A      0.361244   128A      0.373787  
     129A      0.379152   130A      0.387127   131A      0.392212  
     132A      0.394177   133A      0.395450   134A      0.402322  
     135A      0.411282   136A      0.417783   137A      0.433424  
     138A      0.439152   139A      0.444288   140A      0.448647  
     141A      0.461582   142A      0.472413   143A      0.476823  
     144A      0.484999   145A      0.505888   146A      0.511914  
     147A      0.525590   148A      0.528462   149A      0.533038  
     150A      0.557084   151A      0.576232   152A      0.579986  
     153A      0.585449   154A      0.595014   155A      0.606425  
     156A      0.627130   157A      0.655174   158A      0.664122  
     159A      0.670474   160A      0.695028   161A      0.727968  
     162A      0.743395   163A      0.754257   164A      0.758610  
     165A      0.769139   166A      0.773905   167A      0.788297  
     168A      0.797548   169A      0.802974   170A      0.813487  
     171A      0.822395   172A      0.838419   173A      0.861352  
     174A      0.878723   175A      0.882672   176A      0.897174  
     177A      0.912475   178A      0.922017   179A      0.925476  
     180A      0.931675   181A      0.962975   182A      0.968687  
     183A      0.978526   184A      0.986122   185A      1.012331  
     186A      1.025921   187A      1.043370   188A      1.052254  
     189A      1.057046   190A      1.080065   191A      1.088078  
     192A      1.101802   193A      1.119872   194A      1.152332  
     195A      1.156600   196A      1.172755   197A      1.202466  
     198A      1.210581   199A      1.214109   200A      1.218117  
     201A      1.235896   202A      1.249029   203A      1.271603  
     204A      1.279690   205A      1.282092   206A      1.321497  
     207A      1.322817   208A      1.335151   209A      1.341595  
     210A      1.395093   211A      1.402327   212A      1.409027  
     213A      1.414898   214A      1.417980   215A      1.443686  
     216A      1.449421   217A      1.452537   218A      1.466300  
     219A      1.466936   220A      1.485441   221A      1.511264  
     222A      1.517282   223A      1.527060   224A      1.530915  
     225A      1.557894   226A      1.592287   227A      1.621084  
     228A      1.649580   229A      1.663872   230A      1.670885  
     231A      1.709966   232A      1.749876   233A      1.755536  
     234A      1.757917   235A      1.759338   236A      1.760619  
     237A      1.772688   238A      1.780488   239A      1.789504  
     240A      1.821257   241A      1.838605   242A      1.865129  
     243A      1.874494   244A      1.896918   245A      1.901029  
     246A      1.910909   247A      1.919406   248A      1.947643  
     249A      1.963283   250A      1.966685   251A      1.972635  
     252A      2.005216   253A      2.039462   254A      2.048838  
     255A      2.057699   256A      2.058263   257A      2.081240  
     258A      2.091000   259A      2.100531   260A      2.113143  
     261A      2.146254   262A      2.152372   263A      2.167995  
     264A      2.200452   265A      2.205853   266A      2.211012  
     267A      2.248861   268A      2.258460   269A      2.264951  
     270A      2.268629   271A      2.303009   272A      2.308712  
     273A      2.310385   274A      2.344874   275A      2.349073  
     276A      2.367380   277A      2.380686   278A      2.403267  
     279A      2.462832   280A      2.465502   281A      2.510947  
     282A      2.514855   283A      2.569942   284A      2.625984  
     285A      2.657051   286A      2.677958   287A      2.705385  
     288A      2.735396   289A      2.736889   290A      2.769913  
     291A      2.778632   292A      2.828037   293A      2.832758  
     294A      2.850125   295A      2.899693   296A      2.946943  
     297A      2.960140   298A      3.029845   299A      3.125006  
     300A      3.155303   301A      3.211016   302A      3.233541  
     303A      3.338615   304A      3.379354   305A      3.463242  
     306A      3.487410   307A      4.035534   308A      4.279332  
     309A      4.329179   310A      4.335273   311A      4.361384  
     312A      4.377629   313A      4.416330   314A      4.469989  
     315A      4.486702   316A      4.521642   317A      4.580781  
     318A      4.780676   319A      4.835455   320A      5.116781  
     321A      5.696613   322A      7.147736  

    Final Occupation by Irrep:
              A 
    DOCC [    62 ]

  @DF-RKS Final Energy: -1188.11620944661604

   => Energetics <=

    Nuclear Repulsion Energy =           1174.4205316421644056
    One-Electron Energy =               -3962.9125071338353337
    Two-Electron Energy =                1689.8295490891141526
    DFT Exchange-Correlation Energy =     -89.4401898808160780
    Empirical Dispersion Energy =          -0.0135931632431251
    VV10 Nonlocal Energy =                  0.0000000000000000
    Total Energy =                      -1188.1162094466158123

Computation Completed


Properties will be evaluated at   0.000000,   0.000000,   0.000000 [a0]

Properties computed using the SCF density matrix

  Nuclear Dipole Moment: [e a0]
     X:    26.3694      Y:    -0.5578      Z:    -4.2160

  Electronic Dipole Moment: [e a0]
     X:   -23.1155      Y:     0.1952      Z:     3.6978

  Dipole Moment: [e a0]
     X:     3.2539      Y:    -0.3626      Z:    -0.5182     Total:     3.3148

  Dipole Moment: [D]
     X:     8.2705      Y:    -0.9215      Z:    -1.3171     Total:     8.4253


*** tstop() called on cpu-spot-dy-c5n2xlarge-1 at Mon Jun 21 22:12:30 2021
Module time:
	user time   =     556.56 seconds =       9.28 minutes
	system time =      10.38 seconds =       0.17 minutes
	total time  =         75 seconds =       1.25 minutes
Total time:
	user time   =     556.56 seconds =       9.28 minutes
	system time =      10.38 seconds =       0.17 minutes
	total time  =         75 seconds =       1.25 minutes

*** tstart() called on cpu-spot-dy-c5n2xlarge-1
*** at Mon Jun 21 22:12:30 2021


         ------------------------------------------------------------
                                   SCF GRAD                          
                          Rob Parrish, Justin Turney,                
                       Andy Simmonett, and Alex Sokolov              
         ------------------------------------------------------------

  ==> Geometry <==

    Molecular point group: c1
    Full point group: C1

    Geometry (in Angstrom), charge = 0, multiplicity = 1:

       Center              X                  Y                   Z               Mass       
    ------------   -----------------  -----------------  -----------------  -----------------
         N           -1.037397378682    -1.493786486998     0.180529129447    14.003074004430
         C           -2.341962378682    -1.148878486998     0.417537129447    12.000000000000
         C           -2.648571378682     0.384517513002     0.465782129447    12.000000000000
         F           -3.588238378682     0.648573513002    -0.505254870553    18.998403162730
         F           -3.209827378682     0.656218513002     1.693492129447    18.998403162730
         C           -1.444705378682     1.367100513002     0.254417129447    12.000000000000
         C           -0.109973378682     0.774844513002     0.006711129447    12.000000000000
         C            1.010270621318     1.610302513002    -0.196690870553    12.000000000000
         C            2.281575621318     1.070427513002    -0.430793870553    12.000000000000
         C            2.467074621318    -0.338590486998    -0.472907870553    12.000000000000
         C            1.346886621318    -1.171951486998    -0.258743870553    12.000000000000
         C            0.068729621318    -0.635477486998    -0.024953870553    12.000000000000
         S            4.009810621318    -1.183278486998    -0.727352870553    31.972071174400
         C            5.290277621318     0.098849513002    -0.795817870553    12.000000000000
         O           -3.191209378682    -2.014102486998     0.575049129447    15.994914619570
         O           -1.617818378682     2.581605513002     0.293260129447    15.994914619570
         H            3.111875621318     1.759744513002    -0.576349870553     1.007825032230
         H            0.860257621318     2.690102513002    -0.166573870553     1.007825032230
         H           -0.904659378682    -2.495673486998     0.160271129447     1.007825032230
         H            1.475383621318    -2.255477486998    -0.270313870553     1.007825032230
         H            5.133058621318     0.724085513002    -1.680060870553     1.007825032230
         H            5.251267621318     0.706738513002     0.113348129447     1.007825032230
         H            6.268913621318    -0.385730486998    -0.865215870553     1.007825032230

  Nuclear repulsion = 1174.420531642164406

  ==> Basis Set <==

  Basis Set: 6-31+G*
    Blend: 6-31+G*
    Number of shells: 144
    Number of basis function: 322
    Number of Cartesian functions: 322
    Spherical Harmonics?: false
    Max angular momentum: 2

  ==> DFJKGrad: Density-Fitted SCF Gradients <==

    Gradient:                    1
    J tasked:                  Yes
    K tasked:                  Yes
    wK tasked:                 Yes
    Omega:               2.000E-01
    OpenMP threads:              8
    Integrals threads:           8
    Memory [MiB]:            11444
    Schwarz Cutoff:          0E+00
    Fitting Condition:       1E-10

   => Auxiliary Basis Set <=

  Basis Set: (6-31+G* AUX)
    Blend: HEAVY-AUG-CC-PVDZ-JKFIT
    Number of shells: 523
    Number of basis function: 1840
    Number of Cartesian functions: 1840
    Spherical Harmonics?: false
    Max angular momentum: 3

  ==> DFT Potential <==

   => Composite Functional: WB97X-D <= 

    wB97X-D Hyb-GGA Exchange-Correlation Functional

    J.-D. Chai and M. Head-Gordon, Phys. Chem. Chem. Phys. 10, 6615 (2008)

    Deriv               =              1
    GGA                 =           TRUE
    Meta                =          FALSE

    Exchange Hybrid     =           TRUE
    MP2 Hybrid          =          FALSE

   => Exchange-Correlation Functionals <=

    1.0000   wB97D range-separated functional

   => Exact (HF) Exchange <=

    0.7780            HF,LR [omega = 0.2000]
    0.2220               HF 

   => Molecular Quadrature <=

    Radial Scheme          =       TREUTLER
    Pruning Scheme         =           FLAT
    Nuclear Scheme         =       TREUTLER

    BS radius alpha        =              1
    Pruning alpha          =              1
    Radial Points          =             75
    Spherical Points       =            302
    Total Points           =         520855
    Total Blocks           =           3870
    Max Points             =            256
    Max Functions          =            288


  -Total Gradient:
     Atom            X                  Y                   Z
    ------   -----------------  -----------------  -----------------
       1       -0.009501953546    -0.010904977702     0.001589155647
       2        0.008102343123     0.011581879956    -0.001435355187
       3        0.012441656875    -0.004064848825    -0.002705098004
       4       -0.012125057518     0.003474992540    -0.013092774837
       5       -0.007197419397     0.003696494061     0.016848601133
       6       -0.008803372984    -0.021802203949     0.001629537254
       7       -0.000485174553     0.007337726949    -0.000035512352
       8       -0.002993880112     0.013719726534     0.000624104070
       9        0.005486561891     0.003025635836    -0.000446116513
      10        0.008354279393    -0.009819907008    -0.005482510597
      11        0.004577191529    -0.002693150444     0.000096533812
      12       -0.002213504625    -0.005915247084     0.001135602249
      13        0.003789341371     0.004584551656    -0.000316063183
      14        0.010063018620    -0.008108028781    -0.000111182418
      15       -0.008662236454    -0.021595868083     0.001579630402
      16        0.005072574254     0.029132691737    -0.000757327458
      17        0.000742593809     0.003735359249     0.000240164374
      18       -0.000710654525     0.003895364148     0.000069589058
      19       -0.004010361128     0.001733489687     0.000793207737
      20        0.000367548970    -0.002466868585     0.000035017489
      21       -0.003081869299    -0.001182633051    -0.001399202818
      22       -0.002467739599    -0.000634175658     0.001342514595
      23        0.004028079045     0.002846339353    -0.000295758492


*** tstop() called on cpu-spot-dy-c5n2xlarge-1 at Mon Jun 21 22:12:53 2021
Module time:
	user time   =     144.77 seconds =       2.41 minutes
	system time =       3.64 seconds =       0.06 minutes
	total time  =         23 seconds =       0.38 minutes
Total time:
	user time   =     701.33 seconds =      11.69 minutes
	system time =      14.02 seconds =       0.23 minutes
	total time  =         98 seconds =       1.63 minutes

			-----------------------------------------
			 OPTKING 2.0: for geometry optimizations 
			  - R.A. King,  Bethel University        
			-----------------------------------------
	At level 1: Red. Int., RFO, no backsteps, dynamic trust

	Internal coordinates to be generated automatically.
	Detected frag 1 with atoms:  1 2 3 4 5 6 7 8 9 10 11 12 13 14 15 16 17 18 19 20
	 21 22 23
	---Fragment 1 Bond Connectivity---
	 1 : 2 12 19
	 2 : 1 3 15
	 3 : 2 4 5 6
	 4 : 3
	 5 : 3
	 6 : 3 7 16
	 7 : 6 8 12
	 8 : 7 9 18
	 9 : 8 10 17
	 10 : 9 11 13
	 11 : 10 12 20
	 12 : 1 7 11
	 13 : 10 14
	 14 : 13 21 22 23
	 15 : 2
	 16 : 6
	 17 : 9
	 18 : 8
	 19 : 1
	 20 : 11
	 21 : 14
	 22 : 14
	 23 : 14

	Assuming in current code that numbering for constraints corresponds to unified fragment.
	Frozen dihedral atom list: 
	    11    10    13    14
	     9    10    13    14
	    21    14    13    10
	---Fragment 1 Geometry and Gradient---
	 N          -1.9603969290       -2.8228473503        0.3411506123
	 C          -4.4256674918       -2.1710656919        0.7890308219
	 C          -5.0050745294        0.7266327900        0.8802006588
	 F          -6.7807878086        1.2256263118       -0.9547933289
	 F          -6.0656946557        1.2400732680        3.2002363203
	 C          -2.7300974977        2.5834455555        0.4807786963
	 C          -0.2078195668        1.4642439194        0.0126821966
	 C           1.9091347869        3.0430307287       -0.3716918767
	 C           4.3115530588        2.0228148367       -0.8140824319
	 C           4.6620953654       -0.6398432891       -0.8936663579
	 C           2.5452468363       -2.2146673427       -0.4889550520
	 C           0.1298801610       -1.2008784093       -0.0471559811
	 S           7.5774438892       -2.2360722706       -1.3744977219
	 C           9.9971758319        0.1867985072       -1.5038778211
	 O          -6.0305117347       -3.8061020890        1.0866853633
	 O          -3.0572336564        4.8785273835        0.5541813282
	 H           5.8805926608        3.3254351804       -1.0891434078
	 H           1.6256513016        5.0835569990       -0.3147789950
	 H          -1.7095584625       -4.7161393890        0.3028685405
	 H           2.7880709743       -4.2622347326       -0.5108191833
	 H           9.7000749802        1.3683233110       -3.1748549194
	 H           9.9234576158        1.3355422319        0.2141969215
	 H          11.8465298484       -0.7289249787       -1.6350210347
	            -0.0095019535       -0.0109049777        0.0015891556
	             0.0081023431        0.0115818800       -0.0014353552
	             0.0124416569       -0.0040648488       -0.0027050980
	            -0.0121250575        0.0034749925       -0.0130927748
	            -0.0071974194        0.0036964941        0.0168486011
	            -0.0088033730       -0.0218022039        0.0016295373
	            -0.0004851746        0.0073377269       -0.0000355124
	            -0.0029938801        0.0137197265        0.0006241041
	             0.0054865619        0.0030256358       -0.0004461165
	             0.0083542794       -0.0098199070       -0.0054825106
	             0.0045771915       -0.0026931504        0.0000965338
	            -0.0022135046       -0.0059152471        0.0011356022
	             0.0037893414        0.0045845517       -0.0003160632
	             0.0100630186       -0.0081080288       -0.0001111824
	            -0.0086622365       -0.0215958681        0.0015796304
	             0.0050725743        0.0291326917       -0.0007573275
	             0.0007425938        0.0037353592        0.0002401644
	            -0.0007106545        0.0038953641        0.0000695891
	            -0.0040103611        0.0017334897        0.0007932077
	             0.0003675490       -0.0024668686        0.0000350175
	            -0.0030818693       -0.0011826331       -0.0013992028
	            -0.0024677396       -0.0006341757        0.0013425146
	             0.0040280790        0.0028463394       -0.0002957585

	Previous optimization step data not found.  Starting new optimization.

	---Fragment 1 Intrafragment Coordinates---
	 - Coordinate -           - BOHR/RAD -       - ANG/DEG -
	 R(1,2)           =         2.589010	       1.370045
	 R(1,12)          =         2.674102	       1.415074
	 R(1,19)          =         1.910220	       1.010845
	 R(2,3)           =         2.956464	       1.564494
	 R(2,15)          =         2.310296	       1.222556
	 R(3,4)           =         2.601798	       1.376812
	 R(3,5)           =         2.602134	       1.376990
	 R(3,6)           =         2.963581	       1.568259
	 R(6,7)           =         2.798859	       1.481092
	 R(6,16)          =         2.319441	       1.227395
	 R(7,8)           =         2.668671	       1.412200
	 R(7,12)          =         2.687099	       1.421951
	 R(8,9)           =         2.647294	       1.400887
	 R(8,18)          =         2.060910	       1.090587
	 R(9,10)          =         2.686813	       1.421800
	 R(9,17)          =         2.057757	       1.088918
	 R(10,11)         =         2.669253	       1.412508
	 R(10,13)         =         3.358333	       1.777153
	 R(11,12)         =         2.656492	       1.405755
	 R(11,20)         =         2.062031	       1.091180
	 R(13,14)         =         3.426681	       1.813322
	 R(14,21)         =         2.067954	       1.094314
	 R(14,22)         =         2.068049	       1.094364
	 R(14,23)         =         2.067815	       1.094240
	 B(1,2,3)         =         2.024940	     116.020517
	 B(1,2,15)        =         2.100838	     120.369150
	 B(1,12,7)        =         2.094529	     120.007695
	 B(1,12,11)       =         2.098323	     120.225070
	 B(2,1,12)        =         2.235387	     128.078259
	 B(2,1,19)        =         1.958456	     112.211286
	 B(2,3,4)         =         1.875470	     107.456512
	 B(2,3,5)         =         1.876294	     107.503741
	 B(2,3,6)         =         2.048218	     117.354257
	 B(3,2,15)        =         2.157405	     123.610202
	 B(3,6,7)         =         2.053061	     117.631713
	 B(3,6,16)        =         2.102995	     120.492727
	 B(4,3,5)         =         1.888930	     108.227726
	 B(4,3,6)         =         1.884617	     107.980574
	 B(5,3,6)         =         1.885388	     108.024770
	 B(6,7,8)         =         2.097160	     120.158438
	 B(6,7,12)        =         2.110157	     120.903067
	 B(7,6,16)        =         2.127128	     121.875439
	 B(7,8,9)         =         2.112927	     121.061815
	 B(7,8,18)        =         2.063099	     118.206865
	 B(7,12,11)       =         2.090331	     119.767161
	 B(8,7,12)        =         2.075858	     118.937928
	 B(8,9,10)        =         2.100486	     120.348972
	 B(8,9,17)        =         2.060483	     118.056952
	 B(9,8,18)        =         2.107159	     120.731318
	 B(9,10,11)       =         2.067721	     118.471697
	 B(9,10,13)       =         2.200036	     126.052765
	 B(10,9,17)       =         2.122216	     121.594043
	 B(10,11,12)      =         2.118966	     121.407827
	 B(10,11,20)      =         2.083863	     119.396568
	 B(10,13,14)      =         1.857026	     106.399727
	 B(11,10,13)      =         2.014986	     115.450189
	 B(12,1,19)       =         2.089342	     119.710455
	 B(12,11,20)      =         2.080346	     119.195049
	 B(13,14,21)      =         1.910318	     109.453173
	 B(13,14,22)      =         1.913690	     109.646368
	 B(13,14,23)      =         1.897389	     108.712358
	 B(21,14,22)      =         1.927088	     110.413989
	 B(21,14,23)      =         1.907380	     109.284803
	 B(22,14,23)      =         1.907690	     109.302608
	 D(1,2,3,4)       =         2.115981	     121.236796
	 D(1,2,3,5)       =        -2.137479	    -122.468502
	 D(1,2,3,6)       =        -0.009907	      -0.567644
	 D(1,12,7,6)      =         0.001057	       0.060555
	 D(1,12,7,8)      =         3.137877	     179.787107
	 D(1,12,11,10)    =         3.136572	     179.712317
	 D(1,12,11,20)    =        -0.009782	      -0.560471
	 D(2,1,12,7)      =         0.003643	       0.208748
	 D(2,1,12,11)     =        -3.139681	    -179.890460
	 D(2,3,6,7)       =         0.013992	       0.801679
	 D(2,3,6,16)      =        -3.129764	    -179.322272
	 D(3,2,1,12)      =         0.001222	       0.069989
	 D(3,2,1,19)      =        -3.140428	    -179.933293
	 D(3,6,7,8)       =         3.136684	     179.718779
	 D(3,6,7,12)      =        -0.009739	      -0.557991
	 D(4,3,2,15)      =        -1.023320	     -58.631900
	 D(4,3,6,7)       =        -2.107159	    -120.731326
	 D(4,3,6,16)      =         1.032270	      59.144723
	 D(5,3,2,15)      =         1.006406	      57.662802
	 D(5,3,6,7)       =         2.136858	     122.432955
	 D(5,3,6,16)      =        -1.006898	     -57.690996
	 D(6,3,2,15)      =         3.133977	     179.563660
	 D(6,7,8,9)       =         3.140158	     179.917821
	 D(6,7,8,18)      =        -0.001170	      -0.067046
	 D(6,7,12,11)     =        -3.138812	    -179.840693
	 D(7,8,9,10)      =         0.004032	       0.231020
	 D(7,8,9,17)      =        -3.136427	    -179.704010
	 D(7,12,1,19)     =        -3.137888	    -179.787754
	 D(7,12,11,10)    =        -0.006748	      -0.386652
	 D(7,12,11,20)    =         3.130083	     179.340560
	 D(8,7,6,16)      =        -0.002713	      -0.155446
	 D(8,7,12,11)     =        -0.001992	      -0.114141
	 D(8,9,10,11)     =        -0.012454	      -0.713587
	 D(8,9,10,13)     =        -3.120518	    -178.792485
	 D(9,8,7,12)      =         0.003302	       0.189182
	 D(9,10,11,12)    =         0.013883	       0.795449
	 D(9,10,11,20)    =        -3.122939	    -178.931224
	*D(9,10,13,14)    =         0.071154	       4.076798
	 D(10,9,8,18)     =        -3.137831	    -179.784494
	*D(10,13,14,21)   =        -1.143787	     -65.534171
	 D(10,13,14,22)   =         0.972543	      55.722605
	 D(10,13,14,23)   =         3.057151	     175.161872
	 D(11,10,9,17)    =         3.127963	     179.219102
	*D(11,10,13,14)   =        -3.037798	    -174.052981
	 D(11,12,1,19)    =         0.001973	       0.113038
	 D(12,1,2,15)     =         3.140602	     179.943245
	 D(12,7,6,16)     =         3.134049	     179.567784
	 D(12,7,8,18)     =        -3.138027	    -179.795686
	 D(12,11,10,13)   =         3.125456	     179.075431
	 D(13,10,9,17)    =         0.019900	       1.140204
	 D(13,10,11,20)   =        -0.011366	      -0.651241
	 D(15,2,1,19)     =        -0.001048	      -0.060037
	 D(17,9,8,18)     =         0.004895	       0.280476

	Current energy   :     -1188.1162094466

	Generating empirical Hessian (Schlegel '84) for each fragment.
	Taking RFO optimization step.
	Going to follow RFO solution 1.
	Using RFO vector 1.
	Norm of target step-size    0.20902
	Projected energy change by RFO approximation:        -0.0131792149

	Back-transformation to cartesian coordinates...
	Successfully converged to displaced geometry.

	Back-transformation to cartesian coordinates to adjust frozen coordinates...
	Successfully converged to displaced geometry.

	--- Internal Coordinate Step in ANG or DEG, aJ/ANG or AJ/DEG ---
	 ---------------------------------------------------------------------------
	   Coordinate                Previous        Force       Change         New 
	   ----------                --------       ------       ------       ------
	    1 R(1,2)          =      1.370045    -0.008089    -0.000934     1.369111
	    2 R(1,12)         =      1.415074    -0.129941    -0.019112     1.395962
	    3 R(1,19)         =      1.010845     0.018858     0.002566     1.013411
	    4 R(2,3)          =      1.564494    -0.095484    -0.021200     1.543294
	    5 R(2,15)         =      1.222556    -0.177228    -0.011904     1.210652
	    6 R(3,4)          =      1.376812    -0.149977    -0.018867     1.357945
	    7 R(3,5)          =      1.376990    -0.154099    -0.019398     1.357592
	    8 R(3,6)          =      1.568259    -0.090832    -0.020551     1.547709
	    9 R(6,7)          =      1.481092    -0.079389    -0.014432     1.466660
	   10 R(6,16)         =      1.227395    -0.231640    -0.015904     1.211491
	   11 R(7,8)          =      1.412200    -0.108832    -0.015675     1.396525
	   12 R(7,12)         =      1.421951    -0.117592    -0.017990     1.403961
	   13 R(8,9)          =      1.400887    -0.138280    -0.019019     1.381868
	   14 R(8,18)         =      1.090587    -0.032776    -0.005830     1.084757
	   15 R(9,10)         =      1.421800    -0.141920    -0.020835     1.400965
	   16 R(9,17)         =      1.088918    -0.023758    -0.004203     1.084715
	   17 R(10,11)        =      1.412508    -0.107047    -0.015138     1.397370
	   18 R(10,13)        =      1.777153    -0.097512    -0.021325     1.755828
	   19 R(11,12)        =      1.405755    -0.139904    -0.019455     1.386300
	   20 R(11,20)        =      1.091180    -0.020361    -0.003628     1.087552
	   21 R(13,14)        =      1.813322    -0.007973    -0.001935     1.811386
	   22 R(14,21)        =      1.094314    -0.007406    -0.001333     1.092981
	   23 R(14,22)        =      1.094364    -0.007110    -0.001280     1.093085
	   24 R(14,23)        =      1.094240    -0.019181    -0.003451     1.090789
	   25 B(1,2,3)        =    116.020517    -0.000069    -0.079489   115.941029
	   26 B(1,2,15)       =    120.369150     0.000823     2.293458   122.662607
	   27 B(1,12,7)       =    120.007695     0.000211     0.413694   120.421389
	   28 B(1,12,11)      =    120.225070    -0.000391    -1.024284   119.200786
	   29 B(2,1,12)       =    128.078259    -0.000184    -0.657926   127.420332
	   30 B(2,1,19)       =    112.211286     0.000373     1.544497   113.755783
	   31 B(2,3,4)        =    107.456512    -0.000025    -0.119778   107.336733
	   32 B(2,3,5)        =    107.503741    -0.000027    -0.115770   107.387971
	   33 B(2,3,6)        =    117.354257     0.000076     0.500943   117.855200
	   34 B(3,2,15)       =    123.610202    -0.000755    -2.213875   121.396328
	   35 B(3,6,7)        =    117.631713    -0.000142    -0.364584   117.267129
	   36 B(3,6,16)       =    120.492727    -0.000746    -2.150594   118.342133
	   37 B(4,3,5)        =    108.227726    -0.000018    -0.243568   107.984159
	   38 B(4,3,6)        =    107.980574    -0.000007    -0.049451   107.931123
	   39 B(5,3,6)        =    108.024770    -0.000005    -0.029274   107.995497
	   40 B(6,7,8)        =    120.158438    -0.000053    -0.062723   120.095715
	   41 B(6,7,12)       =    120.903067     0.000109     0.187785   121.090852
	   42 B(7,6,16)       =    121.875439     0.000888     2.515299   124.390738
	   43 B(7,8,9)        =    121.061815     0.000066     0.177139   121.238954
	   44 B(7,8,18)       =    118.206865    -0.000019    -0.026583   118.180282
	   45 B(7,12,11)      =    119.767161     0.000180     0.609424   120.376585
	   46 B(8,7,12)       =    118.937928    -0.000055    -0.125044   118.812884
	   47 B(8,9,10)       =    120.348972    -0.000235    -0.743663   119.605309
	   48 B(8,9,17)       =    118.056952     0.000312     1.215642   119.272594
	   49 B(9,8,18)       =    120.731318    -0.000047    -0.150556   120.580762
	   50 B(9,10,11)      =    118.471697     0.000447     1.329084   119.800781
	   51 B(9,10,13)      =    126.052765    -0.000589    -1.709200   124.343565
	   52 B(10,9,17)      =    121.594043    -0.000077    -0.472358   121.121685
	   53 B(10,11,12)     =    121.407827    -0.000403    -1.248730   120.159097
	   54 B(10,11,20)     =    119.396568     0.000203     0.632712   120.029280
	   55 B(10,13,14)     =    106.399727    -0.001650    -4.711614   101.688113
	   56 B(11,10,13)     =    115.450189     0.000142     0.379323   115.829512
	   57 B(12,1,19)      =    119.710455    -0.000188    -0.886571   118.823884
	   58 B(12,11,20)     =    119.195049     0.000200     0.616508   119.811557
	   59 B(13,14,21)     =    109.453173     0.000472     2.200617   111.653790
	   60 B(13,14,22)     =    109.646368     0.000321     1.391109   111.037476
	   61 B(13,14,23)     =    108.712358    -0.000655    -3.140431   105.571927
	   62 B(21,14,22)     =    110.413989    -0.000201    -0.117817   110.296172
	   63 B(21,14,23)     =    109.284803     0.000058    -0.187301   109.097501
	   64 B(22,14,23)     =    109.302608    -0.000004    -0.269315   109.033292
	   65 D(1,2,3,4)      =    121.236796     0.000005     0.164455   121.401251
	   66 D(1,2,3,5)      =   -122.468502    -0.000006    -0.237211  -122.705713
	   67 D(1,2,3,6)      =     -0.567644    -0.000000    -0.020787    -0.588431
	   68 D(1,12,7,6)     =      0.060555    -0.000001    -0.157812    -0.097257
	   69 D(1,12,7,8)     =    179.787107    -0.000001    -0.153955   179.633152
	   70 D(1,12,11,10)   =    179.712317     0.000000     0.069738   179.782055
	   71 D(1,12,11,20)   =     -0.560471     0.000002     0.249105    -0.311366
	   72 D(2,1,12,7)     =      0.208748     0.000001     0.068138     0.276887
	   73 D(2,1,12,11)    =   -179.890460    -0.000002    -0.236218  -180.126678
	   74 D(2,3,6,7)      =      0.801679    -0.000001    -0.062903     0.738776
	   75 D(2,3,6,16)     =   -179.322272     0.000001     0.058565  -179.263708
	   76 D(3,2,1,12)     =      0.069989    -0.000000     0.019211     0.089200
	   77 D(3,2,1,19)     =   -179.933293     0.000000     0.014505  -179.918788
	   78 D(3,6,7,8)      =    179.718779     0.000001     0.149712   179.868491
	   79 D(3,6,7,12)     =     -0.557991     0.000001     0.153460    -0.404531
	   80 D(4,3,2,15)     =    -58.631900     0.000005     0.100616   -58.531284
	   81 D(4,3,6,7)      =   -120.731326    -0.000004    -0.215297  -120.946623
	   82 D(4,3,6,16)     =     59.144723    -0.000003    -0.093830    59.050894
	   83 D(5,3,2,15)     =     57.662802    -0.000006    -0.301050    57.361752
	   84 D(5,3,6,7)      =    122.432955     0.000003     0.112513   122.545468
	   85 D(5,3,6,16)     =    -57.690996     0.000004     0.233981   -57.457015
	   86 D(6,3,2,15)     =    179.563660    -0.000001    -0.084627   179.479033
	   87 D(6,7,8,9)      =    179.917821     0.000000    -0.010760   179.907062
	   88 D(6,7,8,18)     =     -0.067046    -0.000000    -0.041666    -0.108712
	   89 D(6,7,12,11)    =   -179.840693     0.000002     0.151770  -179.688923
	   90 D(7,8,9,10)     =      0.231020    -0.000000    -0.040251     0.190769
	   91 D(7,8,9,17)     =   -179.704010    -0.000003    -0.335984  -180.039994
	   92 D(7,12,1,19)    =   -179.787754     0.000001     0.072985  -179.714769
	   93 D(7,12,11,10)   =     -0.386652    -0.000002    -0.234672    -0.621324
	   94 D(7,12,11,20)   =    179.340560    -0.000001    -0.055305   179.285254
	   95 D(8,7,6,16)     =     -0.155446     0.000001     0.026586    -0.128860
	   96 D(8,7,12,11)    =     -0.114141     0.000001     0.155626     0.041485
	   97 D(8,9,10,11)    =     -0.713587    -0.000002    -0.055392    -0.768978
	   98 D(8,9,10,13)    =   -178.792485    -0.000000    -0.036555  -178.829040
	   99 D(9,8,7,12)     =      0.189182     0.000000    -0.015283     0.173899
	  100 D(9,10,11,12)   =      0.795449     0.000003     0.190293     0.985742
	  101 D(9,10,11,20)   =   -178.931224     0.000002     0.010592  -178.920631
	  102 *D(9,10,13,14)  =      4.076798     0.000000    -0.000000     4.076798
	  103 D(10,9,8,18)    =   -179.784494     0.000000    -0.008586  -179.793080
	  104 *D(10,13,14,21) =    -65.534171    -0.000000     0.000000   -65.534171
	  105 D(10,13,14,22)  =     55.722605     0.000058     2.286066    58.008671
	  106 D(10,13,14,23)  =    175.161872     0.000010     0.874873   176.036745
	  107 D(11,10,9,17)   =    179.219102     0.000001     0.247058   179.466161
	  108 *D(11,10,13,14) =   -174.052981     0.000000     0.000000  -174.052981
	  109 D(11,12,1,19)   =      0.113038    -0.000002    -0.231371    -0.118333
	  110 D(12,1,2,15)    =    179.943245     0.000000     0.077551   180.020796
	  111 D(12,7,6,16)    =    179.567784     0.000000     0.030334   179.598118
	  112 D(12,7,8,18)    =   -179.795686    -0.000000    -0.046189  -179.841875
	  113 D(12,11,10,13)  =    179.075431    -0.000002     0.130831   179.206263
	  114 D(13,10,9,17)   =      1.140204     0.000003     0.265895     1.406099
	  115 D(13,10,11,20)  =     -0.651241    -0.000003    -0.048870    -0.700111
	  116 D(15,2,1,19)    =     -0.060037     0.000000     0.072845     0.012808
	  117 D(17,9,8,18)    =      0.280476    -0.000003    -0.304319    -0.023843
	 ---------------------------------------------------------------------------
	Successfully symmetrized geometry.

  ==> Convergence Check <==

  Measures of convergence in internal coordinates in au.
  Criteria marked as inactive (o), active & met (*), and active & unmet ( ).
  --------------------------------------------------------------------------------------------- ~
   Step     Total Energy     Delta E     MAX Force     RMS Force      MAX Disp      RMS Disp    ~
  --------------------------------------------------------------------------------------------- ~
    Convergence Criteria             o    2.50e-03 *    1.70e-03 *    1.00e-02 *    6.70e-03 *  ~
  --------------------------------------------------------------------------------------------- ~
      1   -1188.11620945   -1.19e+03 o    2.81e-02      6.83e-03      8.22e-02      1.92e-02    ~
  ---------------------------------------------------------------------------------------------

	Writing optimization data to binary file.
	Structure for next step:
	Cartesian Geometry (in Angstrom)
	    N    -0.9563275418  -1.5419894058   0.1733856601
	    C    -2.2629641609  -1.2134862779   0.4168017888
	    C    -2.5818341857   0.2957182629   0.4655709836
	    F    -3.5189327417   0.5422573546  -0.4857860588
	    F    -3.1366470778   0.5542043185   1.6773560434
	    C    -1.4139965410   1.2888240243   0.2527373629
	    C    -0.0854663439   0.7200878361   0.0024589089
	    C     1.0099285102   1.5622466772  -0.2004225273
	    C     2.2722757176   1.0519074248  -0.4362033769
	    C     2.4612675181  -0.3356403198  -0.4773795762
	    C     1.3769380754  -1.1908496786  -0.2640964804
	    C     0.1135285942  -0.6692556000  -0.0326594819
	    S     4.0120628475  -1.1168269108  -0.7375988056
	    C     5.1352731670   0.3035220774  -0.7837280245
	    O    -3.1257501517  -2.0461258997   0.5841038140
	    O    -1.6519364161   2.4756667877   0.3027273146
	    H     3.1004151210   1.7353384755  -0.5901950206
	    H     0.8450118510   2.6339201130  -0.1685450512
	    H    -0.7844618690  -2.5403757496   0.1471382977
	    H     1.5227926884  -2.2684894433  -0.2778082395
	    H     4.9394464812   0.9446880645  -1.6469581347
	    H     5.0731217853   0.8831265962   0.1409501783
	    H     6.1372738907  -0.1183049357  -0.8724825864
			--------------------------
			 OPTKING Finished Execution 
			--------------------------

    Structure for next step:
    Molecular point group: c1
    Full point group: C1

    Geometry (in Angstrom), charge = 0, multiplicity = 1:

    N           -0.978195948336    -1.514988629011     0.174654838499
    C           -2.284832572566    -1.186485499828     0.418070968189
    C           -2.603702598621     0.322719046922     0.466840163139
    F           -3.540801158275     0.569258139550    -0.484516883046
    F           -3.158515492911     0.581205103518     1.678625227650
    C           -1.435864949283     1.315824812208     0.254006541598
    C           -0.107334747011     0.747088621801     0.003728086576
    C            0.988060111369     1.589247466132    -0.199153350349
    C            2.250407323761     1.078908211754    -0.434934200921
    C            2.439399125012    -0.308639538287    -0.476110400417
    C            1.355069678066    -1.163848900471    -0.262827303766
    C            0.091660191868    -0.642254819803    -0.031390304290
    S            3.990194460493    -1.089826132327    -0.736329630746
    C            5.113404784470     0.330522861395    -0.782458849902
    O           -3.147618566742    -2.019125124876     0.585372993953
    O           -1.673804825389     2.502667580242     0.303996493509
    H            3.078546730393     1.762339265203    -0.588925845199
    H            0.823143451519     2.660920906230    -0.167275874163
    H           -0.806330274887    -2.513374976787     0.148407476029
    H            1.500924291603    -2.241488669428    -0.276539062853
    H            4.917578097839     0.971688851066    -1.645688963446
    H            5.051253402436     0.910127382473     0.142219356591
    H            6.115405512045    -0.091304153363    -0.871213412130

gradient() will perform analytic gradient computation.

*** tstart() called on cpu-spot-dy-c5n2xlarge-1
*** at Mon Jun 21 22:12:53 2021

   => Loading Basis Set <=

    Name: 6-31+G*
    Role: ORBITAL
    Keyword: BASIS
    atoms 1             entry N          line   138 file /fsx/users/francis/anaconda3/envs/poltype-dev/share/psi4/basis/6-31pgs.gbs 
    atoms 2-3, 6-12, 14 entry C          line   119 file /fsx/users/francis/anaconda3/envs/poltype-dev/share/psi4/basis/6-31pgs.gbs 
    atoms 4-5           entry F          line   176 file /fsx/users/francis/anaconda3/envs/poltype-dev/share/psi4/basis/6-31pgs.gbs 
    atoms 13            entry S          line   344 file /fsx/users/francis/anaconda3/envs/poltype-dev/share/psi4/basis/6-31pgs.gbs 
    atoms 15-16         entry O          line   157 file /fsx/users/francis/anaconda3/envs/poltype-dev/share/psi4/basis/6-31pgs.gbs 
    atoms 17-23         entry H          line    46 file /fsx/users/francis/anaconda3/envs/poltype-dev/share/psi4/basis/6-31pgs.gbs 


         ---------------------------------------------------------
                                   SCF
               by Justin Turney, Rob Parrish, Andy Simmonett
                          and Daniel G. A. Smith
                              RKS Reference
                        8 Threads,  15258 MiB Core
         ---------------------------------------------------------

  ==> Geometry <==

    Molecular point group: c1
    Full point group: C1

    Geometry (in Angstrom), charge = 0, multiplicity = 1:

       Center              X                  Y                   Z               Mass       
    ------------   -----------------  -----------------  -----------------  -----------------
         N           -0.978195948336    -1.514988629011     0.174654838499    14.003074004430
         C           -2.284832572566    -1.186485499828     0.418070968189    12.000000000000
         C           -2.603702598621     0.322719046922     0.466840163139    12.000000000000
         F           -3.540801158275     0.569258139550    -0.484516883046    18.998403162730
         F           -3.158515492911     0.581205103518     1.678625227650    18.998403162730
         C           -1.435864949283     1.315824812208     0.254006541598    12.000000000000
         C           -0.107334747011     0.747088621801     0.003728086576    12.000000000000
         C            0.988060111369     1.589247466132    -0.199153350349    12.000000000000
         C            2.250407323761     1.078908211754    -0.434934200921    12.000000000000
         C            2.439399125012    -0.308639538287    -0.476110400417    12.000000000000
         C            1.355069678066    -1.163848900471    -0.262827303766    12.000000000000
         C            0.091660191868    -0.642254819803    -0.031390304290    12.000000000000
         S            3.990194460493    -1.089826132327    -0.736329630746    31.972071174400
         C            5.113404784470     0.330522861395    -0.782458849902    12.000000000000
         O           -3.147618566742    -2.019125124876     0.585372993953    15.994914619570
         O           -1.673804825389     2.502667580242     0.303996493509    15.994914619570
         H            3.078546730393     1.762339265203    -0.588925845199     1.007825032230
         H            0.823143451519     2.660920906230    -0.167275874163     1.007825032230
         H           -0.806330274887    -2.513374976787     0.148407476029     1.007825032230
         H            1.500924291603    -2.241488669428    -0.276539062853     1.007825032230
         H            4.917578097839     0.971688851066    -1.645688963446     1.007825032230
         H            5.051253402436     0.910127382473     0.142219356591     1.007825032230
         H            6.115405512045    -0.091304153363    -0.871213412130     1.007825032230

  Running in c1 symmetry.

  Rotational constants: A =      0.03957  B =      0.00836  C =      0.00718 [cm^-1]
  Rotational constants: A =   1186.42735  B =    250.70241  C =    215.40046 [MHz]
  Nuclear repulsion = 1190.405857388554296

  Charge       = 0
  Multiplicity = 1
  Electrons    = 124
  Nalpha       = 62
  Nbeta        = 62

  ==> Algorithm <==

  SCF Algorithm Type is DF.
  DIIS enabled.
  MOM disabled.
  Fractional occupation disabled.
  Guess Type is READ.
  Energy threshold   = 1.00e-08
  Density threshold  = 1.00e-08
  Integral threshold = 0.00e+00

  ==> Primary Basis <==

  Basis Set: 6-31+G*
    Blend: 6-31+G*
    Number of shells: 144
    Number of basis function: 322
    Number of Cartesian functions: 322
    Spherical Harmonics?: false
    Max angular momentum: 2

  ==> DFT Potential <==

   => Composite Functional: WB97X-D <= 

    wB97X-D Hyb-GGA Exchange-Correlation Functional

    J.-D. Chai and M. Head-Gordon, Phys. Chem. Chem. Phys. 10, 6615 (2008)

    Deriv               =              1
    GGA                 =           TRUE
    Meta                =          FALSE

    Exchange Hybrid     =           TRUE
    MP2 Hybrid          =          FALSE

   => Exchange-Correlation Functionals <=

    1.0000   wB97D range-separated functional

   => Exact (HF) Exchange <=

    0.7780            HF,LR [omega = 0.2000]
    0.2220               HF 

   => Molecular Quadrature <=

    Radial Scheme          =       TREUTLER
    Pruning Scheme         =           FLAT
    Nuclear Scheme         =       TREUTLER

    BS radius alpha        =              1
    Pruning alpha          =              1
    Radial Points          =             75
    Spherical Points       =            302
    Total Points           =         520849
    Total Blocks           =           3860
    Max Points             =            256
    Max Functions          =            288

   => WB97X-D: Empirical Dispersion <=

    Chai and Head-Gordon Dispersion Correction
    Chai, J.-D.; Head-Gordon, M. (2010), J. Chem. Phys., 132: 6615-6620

        s6 =       1.000000

   => Loading Basis Set <=

    Name: (6-31+G* AUX)
    Role: JKFIT
    Keyword: DF_BASIS_SCF
    atoms 1             entry N          line   252 file /fsx/users/francis/anaconda3/envs/poltype-dev/share/psi4/basis/heavy-aug-cc-pvdz-jkfit.gbs 
    atoms 2-3, 6-12, 14 entry C          line   194 file /fsx/users/francis/anaconda3/envs/poltype-dev/share/psi4/basis/heavy-aug-cc-pvdz-jkfit.gbs 
    atoms 4-5           entry F          line   368 file /fsx/users/francis/anaconda3/envs/poltype-dev/share/psi4/basis/heavy-aug-cc-pvdz-jkfit.gbs 
    atoms 13            entry S          line   730 file /fsx/users/francis/anaconda3/envs/poltype-dev/share/psi4/basis/heavy-aug-cc-pvdz-jkfit.gbs 
    atoms 15-16         entry O          line   310 file /fsx/users/francis/anaconda3/envs/poltype-dev/share/psi4/basis/heavy-aug-cc-pvdz-jkfit.gbs 
    atoms 17-23         entry H          line   116 file /fsx/users/francis/anaconda3/envs/poltype-dev/share/psi4/basis/heavy-aug-cc-pvdz-jkfit.gbs 

   => Loading Basis Set <=

    Name: 6-31+G*
    Role: ORBITAL
    Keyword: BASIS
    atoms 1             entry N          line   138 file /fsx/users/francis/anaconda3/envs/poltype-dev/share/psi4/basis/6-31pgs.gbs 
    atoms 2-3, 6-12, 14 entry C          line   119 file /fsx/users/francis/anaconda3/envs/poltype-dev/share/psi4/basis/6-31pgs.gbs 
    atoms 4-5           entry F          line   176 file /fsx/users/francis/anaconda3/envs/poltype-dev/share/psi4/basis/6-31pgs.gbs 
    atoms 13            entry S          line   344 file /fsx/users/francis/anaconda3/envs/poltype-dev/share/psi4/basis/6-31pgs.gbs 
    atoms 15-16         entry O          line   157 file /fsx/users/francis/anaconda3/envs/poltype-dev/share/psi4/basis/6-31pgs.gbs 
    atoms 17-23         entry H          line    46 file /fsx/users/francis/anaconda3/envs/poltype-dev/share/psi4/basis/6-31pgs.gbs 

  Reading orbitals from file 180, no projection.

  ==> Pre-Iterations <==

   -------------------------------------------------------
    Irrep   Nso     Nmo     Nalpha   Nbeta   Ndocc  Nsocc
   -------------------------------------------------------
     A        322     322       0       0       0       0
   -------------------------------------------------------
    Total     322     322      62      62      62       0
   -------------------------------------------------------

  ==> Integral Setup <==

  ==> DiskDFJK: Density-Fitted J/K Matrices <==

    J tasked:                  Yes
    K tasked:                  Yes
    wK tasked:                 Yes
    Omega:               2.000E-01
    OpenMP threads:              8
    Integrals threads:           8
    Memory [MiB]:             8428
    Algorithm:                Core
    Integral Cache:           NONE
    Schwarz Cutoff:          1E-12
    Fitting Condition:       1E-10

   => Auxiliary Basis Set <=

  Basis Set: (6-31+G* AUX)
    Blend: HEAVY-AUG-CC-PVDZ-JKFIT
    Number of shells: 523
    Number of basis function: 1840
    Number of Cartesian functions: 1840
    Spherical Harmonics?: false
    Max angular momentum: 3

  Cached 100.0% of DFT collocation blocks in 2.945 [GiB].

  Minimum eigenvalue in the overlap matrix is 4.7180242400E-07.
  Using Symmetric Orthogonalization.

  SCF Guess: Orbitals guess was supplied from a previous computation.

  ==> Iterations <==

                           Total Energy        Delta E     RMS |[F,P]|

   @DF-RKS iter   0: -1188.29180688176007   -1.18829e+03   1.10488e-03 
   @DF-RKS iter   1: -1188.11912068218248    1.72686e-01   2.27412e-04 DIIS
   @DF-RKS iter   2: -1188.11904134076576    7.93414e-05   2.68996e-04 DIIS
   @DF-RKS iter   3: -1188.12224429398793   -3.20295e-03   5.40803e-05 DIIS
   @DF-RKS iter   4: -1188.12235213686722   -1.07843e-04   1.64938e-05 DIIS
   @DF-RKS iter   5: -1188.12236621561874   -1.40788e-05   4.36203e-06 DIIS
   @DF-RKS iter   6: -1188.12236745774908   -1.24213e-06   1.21397e-06 DIIS
   @DF-RKS iter   7: -1188.12236755667163   -9.89226e-08   5.50225e-07 DIIS
   @DF-RKS iter   8: -1188.12236758040626   -2.37346e-08   1.74866e-07 DIIS
   @DF-RKS iter   9: -1188.12236758490326   -4.49700e-09   9.08375e-08 DIIS
   @DF-RKS iter  10: -1188.12236758569657   -7.93307e-10   4.11104e-08 DIIS
   @DF-RKS iter  11: -1188.12236758592348   -2.26919e-10   1.37442e-08 DIIS
   @DF-RKS iter  12: -1188.12236758595009   -2.66027e-11   7.44971e-09 DIIS
  Energy and wave function converged.


  ==> Post-Iterations <==

    Orbital Energies [Eh]
    ---------------------

    Doubly Occupied:                                                      

       1A    -89.085345     2A    -24.870603     3A    -24.870335  
       4A    -19.301176     5A    -19.291535     6A    -14.540293  
       7A    -10.499179     8A    -10.452297     9A    -10.427141  
      10A    -10.404732    11A    -10.386039    12A    -10.356330  
      13A    -10.349975    14A    -10.346811    15A    -10.346136  
      16A    -10.340438    17A     -8.103084    18A     -6.053686  
      19A     -6.049366    20A     -6.043278    21A     -1.389148  
      22A     -1.328030    23A     -1.192322    24A     -1.181087  
      25A     -1.098923    26A     -1.007644    27A     -0.946201  
      28A     -0.908025    29A     -0.888837    30A     -0.869228  
      31A     -0.800588    32A     -0.765708    33A     -0.753723  
      34A     -0.745781    35A     -0.697010    36A     -0.683274  
      37A     -0.668821    38A     -0.646291    39A     -0.629554  
      40A     -0.592201    41A     -0.588206    42A     -0.568214  
      43A     -0.562618    44A     -0.558457    45A     -0.555077  
      46A     -0.554205    47A     -0.550071    48A     -0.534659  
      49A     -0.517870    50A     -0.515640    51A     -0.507038  
      52A     -0.498432    53A     -0.489153    54A     -0.487300  
      55A     -0.475099    56A     -0.442253    57A     -0.436707  
      58A     -0.398457    59A     -0.394297    60A     -0.363929  
      61A     -0.340150    62A     -0.319610  

    Virtual:                                                              

      63A     -0.041939    64A      0.015716    65A      0.039499  
      66A      0.045678    67A      0.058279    68A      0.066432  
      69A      0.068803    70A      0.073059    71A      0.079885  
      72A      0.088783    73A      0.094242    74A      0.096940  
      75A      0.105385    76A      0.112095    77A      0.114663  
      78A      0.117178    79A      0.118098    80A      0.137184  
      81A      0.138867    82A      0.141479    83A      0.146616  
      84A      0.151210    85A      0.162133    86A      0.164741  
      87A      0.173413    88A      0.177283    89A      0.179271  
      90A      0.180396    91A      0.182474    92A      0.191804  
      93A      0.197850    94A      0.201915    95A      0.207928  
      96A      0.210826    97A      0.218257    98A      0.221390  
      99A      0.224190   100A      0.230999   101A      0.234777  
     102A      0.239595   103A      0.243011   104A      0.245186  
     105A      0.246445   106A      0.251488   107A      0.257411  
     108A      0.264958   109A      0.266338   110A      0.278653  
     111A      0.280801   112A      0.288590   113A      0.290426  
     114A      0.295573   115A      0.300148   116A      0.306638  
     117A      0.309736   118A      0.317496   119A      0.323803  
     120A      0.328377   121A      0.334518   122A      0.338257  
     123A      0.341089   124A      0.345300   125A      0.361270  
     126A      0.363381   127A      0.366183   128A      0.376634  
     129A      0.385705   130A      0.391013   131A      0.394445  
     132A      0.397235   133A      0.401408   134A      0.405556  
     135A      0.413046   136A      0.419873   137A      0.436504  
     138A      0.442474   139A      0.448780   140A      0.453483  
     141A      0.465607   142A      0.476908   143A      0.477643  
     144A      0.488159   145A      0.511797   146A      0.519554  
     147A      0.533032   148A      0.533589   149A      0.542880  
     150A      0.559143   151A      0.577764   152A      0.582500  
     153A      0.594045   154A      0.610441   155A      0.617058  
     156A      0.636282   157A      0.653283   158A      0.673407  
     159A      0.690618   160A      0.713031   161A      0.727270  
     162A      0.745389   163A      0.755180   164A      0.759406  
     165A      0.770621   166A      0.778939   167A      0.788760  
     168A      0.801668   169A      0.809023   170A      0.823410  
     171A      0.830023   172A      0.851836   173A      0.865426  
     174A      0.877359   175A      0.890280   176A      0.896979  
     177A      0.918132   178A      0.930405   179A      0.932011  
     180A      0.938825   181A      0.961774   182A      0.972655  
     183A      0.978486   184A      0.992606   185A      1.021156  
     186A      1.025998   187A      1.047204   188A      1.049010  
     189A      1.059064   190A      1.075539   191A      1.099672  
     192A      1.114494   193A      1.125654   194A      1.160266  
     195A      1.174776   196A      1.176505   197A      1.206318  
     198A      1.210493   199A      1.221731   200A      1.225860  
     201A      1.250079   202A      1.254440   203A      1.274334  
     204A      1.281933   205A      1.286086   206A      1.327748  
     207A      1.330088   208A      1.336001   209A      1.349271  
     210A      1.399511   211A      1.407996   212A      1.416339  
     213A      1.420694   214A      1.426199   215A      1.450447  
     216A      1.454464   217A      1.465642   218A      1.467286  
     219A      1.480740   220A      1.490620   221A      1.512781  
     222A      1.526093   223A      1.527885   224A      1.546925  
     225A      1.586988   226A      1.604086   227A      1.631509  
     228A      1.661052   229A      1.675747   230A      1.685593  
     231A      1.719877   232A      1.749495   233A      1.755428  
     234A      1.761820   235A      1.762624   236A      1.770869  
     237A      1.777541   238A      1.789771   239A      1.793486  
     240A      1.832017   241A      1.841504   242A      1.879955  
     243A      1.895520   244A      1.900150   245A      1.917626  
     246A      1.926210   247A      1.929342   248A      1.968240  
     249A      1.971413   250A      1.975816   251A      1.985620  
     252A      2.023602   253A      2.047339   254A      2.057762  
     255A      2.068149   256A      2.070813   257A      2.095342  
     258A      2.121366   259A      2.121848   260A      2.144876  
     261A      2.178440   262A      2.180380   263A      2.191778  
     264A      2.217894   265A      2.225685   266A      2.238046  
     267A      2.262239   268A      2.265713   269A      2.280565  
     270A      2.284229   271A      2.311578   272A      2.323428  
     273A      2.329122   274A      2.358415   275A      2.364328  
     276A      2.386484   277A      2.395301   278A      2.434895  
     279A      2.481586   280A      2.490746   281A      2.532364  
     282A      2.561566   283A      2.608618   284A      2.656167  
     285A      2.692750   286A      2.704905   287A      2.736546  
     288A      2.766761   289A      2.779356   290A      2.792005  
     291A      2.796998   292A      2.843172   293A      2.857650  
     294A      2.884985   295A      2.934878   296A      2.973581  
     297A      2.989429   298A      3.057744   299A      3.160137  
     300A      3.192074   301A      3.226076   302A      3.258543  
     303A      3.374945   304A      3.428835   305A      3.518751  
     306A      3.528448   307A      4.043502   308A      4.303267  
     309A      4.343888   310A      4.356334   311A      4.368943  
     312A      4.396143   313A      4.431699   314A      4.489700  
     315A      4.495235   316A      4.535202   317A      4.604626  
     318A      4.824528   319A      4.886943   320A      5.171431  
     321A      5.717155   322A      7.269758  

    Final Occupation by Irrep:
              A 
    DOCC [    62 ]

  @DF-RKS Final Energy: -1188.12236758595009

   => Energetics <=

    Nuclear Repulsion Energy =           1190.4058573885542955
    One-Electron Energy =               -3994.7751472650634241
    Two-Electron Energy =                1705.8288614360158135
    DFT Exchange-Correlation Energy =     -89.5681846516453390
    Empirical Dispersion Energy =          -0.0137544938113200
    VV10 Nonlocal Energy =                  0.0000000000000000
    Total Energy =                      -1188.1223675859503146

Computation Completed


Properties will be evaluated at   0.000000,   0.000000,   0.000000 [a0]

Properties computed using the SCF density matrix

  Nuclear Dipole Moment: [e a0]
     X:    25.7922      Y:     0.2604      Z:    -4.1974

  Electronic Dipole Moment: [e a0]
     X:   -22.5968      Y:    -0.6101      Z:     3.6723

  Dipole Moment: [e a0]
     X:     3.1954      Y:    -0.3497      Z:    -0.5251     Total:     3.2570

  Dipole Moment: [D]
     X:     8.1218      Y:    -0.8889      Z:    -1.3346     Total:     8.2786


*** tstop() called on cpu-spot-dy-c5n2xlarge-1 at Mon Jun 21 22:13:52 2021
Module time:
	user time   =     436.37 seconds =       7.27 minutes
	system time =       6.32 seconds =       0.11 minutes
	total time  =         59 seconds =       0.98 minutes
Total time:
	user time   =    1139.42 seconds =      18.99 minutes
	system time =      20.40 seconds =       0.34 minutes
	total time  =        157 seconds =       2.62 minutes

*** tstart() called on cpu-spot-dy-c5n2xlarge-1
*** at Mon Jun 21 22:13:52 2021


         ------------------------------------------------------------
                                   SCF GRAD                          
                          Rob Parrish, Justin Turney,                
                       Andy Simmonett, and Alex Sokolov              
         ------------------------------------------------------------

  ==> Geometry <==

    Molecular point group: c1
    Full point group: C1

    Geometry (in Angstrom), charge = 0, multiplicity = 1:

       Center              X                  Y                   Z               Mass       
    ------------   -----------------  -----------------  -----------------  -----------------
         N           -0.978195948336    -1.514988629011     0.174654838499    14.003074004430
         C           -2.284832572566    -1.186485499828     0.418070968189    12.000000000000
         C           -2.603702598621     0.322719046922     0.466840163139    12.000000000000
         F           -3.540801158275     0.569258139550    -0.484516883046    18.998403162730
         F           -3.158515492911     0.581205103518     1.678625227650    18.998403162730
         C           -1.435864949283     1.315824812208     0.254006541598    12.000000000000
         C           -0.107334747011     0.747088621801     0.003728086576    12.000000000000
         C            0.988060111369     1.589247466132    -0.199153350349    12.000000000000
         C            2.250407323761     1.078908211754    -0.434934200921    12.000000000000
         C            2.439399125012    -0.308639538287    -0.476110400417    12.000000000000
         C            1.355069678066    -1.163848900471    -0.262827303766    12.000000000000
         C            0.091660191868    -0.642254819803    -0.031390304290    12.000000000000
         S            3.990194460493    -1.089826132327    -0.736329630746    31.972071174400
         C            5.113404784470     0.330522861395    -0.782458849902    12.000000000000
         O           -3.147618566742    -2.019125124876     0.585372993953    15.994914619570
         O           -1.673804825389     2.502667580242     0.303996493509    15.994914619570
         H            3.078546730393     1.762339265203    -0.588925845199     1.007825032230
         H            0.823143451519     2.660920906230    -0.167275874163     1.007825032230
         H           -0.806330274887    -2.513374976787     0.148407476029     1.007825032230
         H            1.500924291603    -2.241488669428    -0.276539062853     1.007825032230
         H            4.917578097839     0.971688851066    -1.645688963446     1.007825032230
         H            5.051253402436     0.910127382473     0.142219356591     1.007825032230
         H            6.115405512045    -0.091304153363    -0.871213412130     1.007825032230

  Nuclear repulsion = 1190.405857388554068

  ==> Basis Set <==

  Basis Set: 6-31+G*
    Blend: 6-31+G*
    Number of shells: 144
    Number of basis function: 322
    Number of Cartesian functions: 322
    Spherical Harmonics?: false
    Max angular momentum: 2

  ==> DFJKGrad: Density-Fitted SCF Gradients <==

    Gradient:                    1
    J tasked:                  Yes
    K tasked:                  Yes
    wK tasked:                 Yes
    Omega:               2.000E-01
    OpenMP threads:              8
    Integrals threads:           8
    Memory [MiB]:            11444
    Schwarz Cutoff:          0E+00
    Fitting Condition:       1E-10

   => Auxiliary Basis Set <=

  Basis Set: (6-31+G* AUX)
    Blend: HEAVY-AUG-CC-PVDZ-JKFIT
    Number of shells: 523
    Number of basis function: 1840
    Number of Cartesian functions: 1840
    Spherical Harmonics?: false
    Max angular momentum: 3

  ==> DFT Potential <==

   => Composite Functional: WB97X-D <= 

    wB97X-D Hyb-GGA Exchange-Correlation Functional

    J.-D. Chai and M. Head-Gordon, Phys. Chem. Chem. Phys. 10, 6615 (2008)

    Deriv               =              1
    GGA                 =           TRUE
    Meta                =          FALSE

    Exchange Hybrid     =           TRUE
    MP2 Hybrid          =          FALSE

   => Exchange-Correlation Functionals <=

    1.0000   wB97D range-separated functional

   => Exact (HF) Exchange <=

    0.7780            HF,LR [omega = 0.2000]
    0.2220               HF 

   => Molecular Quadrature <=

    Radial Scheme          =       TREUTLER
    Pruning Scheme         =           FLAT
    Nuclear Scheme         =       TREUTLER

    BS radius alpha        =              1
    Pruning alpha          =              1
    Radial Points          =             75
    Spherical Points       =            302
    Total Points           =         520849
    Total Blocks           =           3860
    Max Points             =            256
    Max Functions          =            288


  -Total Gradient:
     Atom            X                  Y                   Z
    ------   -----------------  -----------------  -----------------
       1        0.001760073223     0.002714918650    -0.000337366429
       2        0.000801088289     0.002507388710    -0.000205368597
       3        0.004908667759    -0.001050700400    -0.001162700169
       4       -0.001346394923     0.000420957915    -0.000506480596
       5       -0.001185962980     0.000488166487     0.001263289564
       6       -0.002702943449    -0.002351999881     0.000409476876
       7        0.001712327018    -0.001126816267    -0.000331006484
       8        0.000218194632    -0.000002107558     0.000070544299
       9       -0.001779201551    -0.003415018264     0.001359051138
      10        0.000626818021     0.003509583278    -0.003283241588
      11        0.000086333303     0.001054624366     0.001356495911
      12        0.003301700354    -0.000050585421    -0.000551000390
      13       -0.002515216297    -0.003735175715     0.000886021721
      14       -0.000529623878     0.002098213255     0.000268656516
      15       -0.001057587564    -0.001931277647     0.000193764419
      16        0.000592073098     0.000523851709    -0.000039652620
      17        0.001790253724     0.000572830501    -0.000086389154
      18        0.000330388578    -0.000596745903    -0.000105420806
      19       -0.000970376354    -0.000407288958     0.000248939062
      20       -0.000111056028    -0.000246195137     0.000069624961
      21       -0.000807153453     0.000559356466     0.000229990816
      22       -0.000954353762     0.000458169435     0.000030322746
      23       -0.001278301298    -0.000507141805     0.000277920821


*** tstop() called on cpu-spot-dy-c5n2xlarge-1 at Mon Jun 21 22:14:15 2021
Module time:
	user time   =     144.75 seconds =       2.41 minutes
	system time =       3.51 seconds =       0.06 minutes
[...]
	 B(3,6,16)        =         2.062667	     118.182138
	 B(4,3,5)         =         1.889805	     108.277851
	 B(4,3,6)         =         1.882047	     107.833327
	 B(5,3,6)         =         1.884775	     107.989675
	 B(6,7,8)         =         2.096349	     120.111950
	 B(6,7,12)        =         2.113148	     121.074483
	 B(7,6,16)        =         2.176660	     124.713432
	 B(7,8,9)         =         2.120536	     121.497778
	 B(7,8,18)        =         2.058248	     117.928951
	 B(7,12,11)       =         2.096324	     120.110540
	 B(8,7,12)        =         2.073682	     118.813245
	 B(8,9,10)        =         2.084847	     119.452935
	 B(8,9,17)        =         2.084019	     119.405468
	 B(9,8,18)        =         2.104401	     120.573269
	 B(9,10,11)       =         2.088819	     119.680531
	 B(9,10,13)       =         2.169044	     124.277077
	 B(10,9,17)       =         2.114298	     121.140380
	 B(10,11,12)      =         2.102051	     120.438629
	 B(10,11,20)      =         2.090773	     119.792496
	 B(10,13,14)      =         1.810060	     103.708796
	 B(11,10,13)      =         2.024866	     116.016301
	 B(12,1,19)       =         2.067417	     118.454252
	 B(12,11,20)      =         2.090361	     119.768866
	 B(13,14,21)      =         1.952735	     111.883458
	 B(13,14,22)      =         1.945052	     111.443247
	 B(13,14,23)      =         1.840496	     105.452639
	 B(21,14,22)      =         1.929038	     110.525741
	 B(21,14,23)      =         1.896084	     108.637611
	 B(22,14,23)      =         1.897000	     108.690107
	 D(1,2,3,4)       =         2.105987	     120.664176
	 D(1,2,3,5)       =        -2.150292	    -123.202675
	 D(1,2,3,6)       =        -0.019335	      -1.107829
	 D(1,12,7,6)      =        -0.002659	      -0.152343
	 D(1,12,7,8)      =         3.135341	     179.641796
	 D(1,12,11,10)    =         3.137875	     179.786981
	 D(1,12,11,20)    =        -0.004338	      -0.248533
	 D(2,1,12,7)      =         0.003204	       0.183603
	 D(2,1,12,11)     =         3.136712	     179.720357
	 D(2,3,6,7)       =         0.019861	       1.137979
	 D(2,3,6,16)      =        -3.124180	    -179.002323
	 D(3,2,1,12)      =         0.008265	       0.473543
	 D(3,2,1,19)      =        -3.135135	    -179.629995
	 D(3,6,7,8)       =         3.136140	     179.687614
	 D(3,6,7,12)      =        -0.009091	      -0.520900
	 D(4,3,2,15)      =        -1.032255	     -59.143852
	 D(4,3,6,7)       =        -2.099714	    -120.304747
	 D(4,3,6,16)      =         1.039430	      59.554951
	 D(5,3,2,15)      =         0.994651	      56.989296
	 D(5,3,6,7)       =         2.144953	     122.896750
	 D(5,3,6,16)      =        -0.999088	     -57.243552
	 D(6,3,2,15)      =         3.125608	     179.084143
	 D(6,7,8,9)       =         3.140376	     179.930294
	 D(6,7,8,18)      =        -0.000934	      -0.053497
	 D(6,7,12,11)     =        -3.136083	    -179.684325
	 D(7,8,9,10)      =         0.003185	       0.182490
	 D(7,8,9,17)      =         3.137858	     179.786018
	 D(7,12,1,19)     =        -3.136517	    -179.709195
	 D(7,12,11,10)    =        -0.011745	      -0.672945
	 D(7,12,11,20)    =         3.129228	     179.291541
	 D(8,7,6,16)      =        -0.002826	      -0.161939
	 D(8,7,12,11)     =         0.001917	       0.109814
	 D(8,9,10,11)     =        -0.012911	      -0.739759
	 D(8,9,10,13)     =        -3.120740	    -178.805216
	 D(9,8,7,12)      =         0.002341	       0.134121
	 D(9,10,11,12)    =         0.017261	       0.988984
	 D(9,10,11,20)    =        -3.123712	    -178.975493
	*D(9,10,13,14)    =         0.071154	       4.076798
	 D(10,9,8,18)     =        -3.138698	    -179.834144
	*D(10,13,14,21)   =        -1.143787	     -65.534171
	 D(10,13,14,22)   =         1.025885	      58.778904
	 D(10,13,14,23)   =         3.081183	     176.538771
	 D(11,10,9,17)    =         3.135725	     179.663784
	*D(11,10,13,14)   =        -3.037798	    -174.052981
	 D(11,12,1,19)    =        -0.003010	      -0.172441
	 D(12,1,2,15)     =        -3.136742	    -179.722102
	 D(12,7,6,16)     =         3.135127	     179.629547
	 D(12,7,8,18)     =        -3.138969	    -179.849670
	 D(12,11,10,13)   =         3.127809	     179.210230
	 D(13,10,9,17)    =         0.027896	       1.598327
	 D(13,10,11,20)   =        -0.013164	      -0.754247
	 D(15,2,1,19)     =         0.003043	       0.174360
	 D(17,9,8,18)     =        -0.004025	      -0.230616

	Current energy   :     -1188.1227740096

	Energy change for the previous step:
		Projected    :        -0.0000565477
		Actual       :        -0.0000464627

	Performing BFGS update.
	Previous computed or guess Hessian on step 1.
	Steps to be used in Hessian update: 2 1
	Taking RFO optimization step.
	Going to follow RFO solution 1.
	Using RFO vector 1.
	Norm of target step-size    0.01891
	Projected energy change by RFO approximation:        -0.0000023704

	Back-transformation to cartesian coordinates...
	Successfully converged to displaced geometry.

	Back-transformation to cartesian coordinates to adjust frozen coordinates...
	Successfully converged to displaced geometry.

	--- Internal Coordinate Step in ANG or DEG, aJ/ANG or AJ/DEG ---
	 ---------------------------------------------------------------------------
	   Coordinate                Previous        Force       Change         New 
	   ----------                --------       ------       ------       ------
	    1 R(1,2)          =      1.369654    -0.000242    -0.000034     1.369620
	    2 R(1,12)         =      1.397630    -0.000116    -0.000014     1.397615
	    3 R(1,19)         =      1.013012    -0.000003    -0.000011     1.013002
	    4 R(2,3)          =      1.547502     0.000063     0.000054     1.547555
	    5 R(2,15)         =      1.209159    -0.000588    -0.000026     1.209133
	    6 R(3,4)          =      1.355941     0.000773     0.000114     1.356056
	    7 R(3,5)          =      1.354766    -0.001382    -0.000177     1.354589
	    8 R(3,6)          =      1.553372    -0.000207    -0.000017     1.553355
	    9 R(6,7)          =      1.465456     0.000099     0.000021     1.465477
	   10 R(6,16)         =      1.211250    -0.003265    -0.000206     1.211044
	   11 R(7,8)          =      1.398512     0.000536     0.000088     1.398600
	   12 R(7,12)         =      1.405712    -0.000771    -0.000131     1.405581
	   13 R(8,9)          =      1.383290    -0.000553    -0.000086     1.383205
	   14 R(8,18)         =      1.085755    -0.000015     0.000001     1.085756
	   15 R(9,10)         =      1.404225     0.001157     0.000206     1.404430
	   16 R(9,17)         =      1.083310    -0.000360    -0.000061     1.083248
	   17 R(10,11)        =      1.399324    -0.000677    -0.000135     1.399188
	   18 R(10,13)        =      1.761499     0.000870     0.000197     1.761696
	   19 R(11,12)        =      1.390425     0.000664     0.000099     1.390524
	   20 R(11,20)        =      1.087344     0.000026     0.000011     1.087356
	   21 R(13,14)        =      1.809160    -0.000432    -0.000187     1.808973
	   22 R(14,21)        =      1.092695     0.000138     0.000029     1.092724
	   23 R(14,22)        =      1.092822     0.000111     0.000018     1.092840
	   24 R(14,23)        =      1.092502    -0.000021    -0.000014     1.092488
	   25 B(1,2,3)        =    116.005796    -0.000001    -0.004780   116.001016
	   26 B(1,2,15)       =    122.866000     0.000001     0.003565   122.869565
	   27 B(1,12,7)       =    120.811181     0.000002     0.006279   120.817460
	   28 B(1,12,11)      =    119.076654    -0.000001    -0.002975   119.073679
	   29 B(2,1,12)       =    127.094076    -0.000000    -0.002651   127.091425
	   30 B(2,1,19)       =    114.451595     0.000001     0.007593   114.459188
	   31 B(2,3,4)        =    107.191144    -0.000000    -0.015898   107.175247
	   32 B(2,3,5)        =    107.331969     0.000001     0.015827   107.347796
	   33 B(2,3,6)        =    117.899808     0.000001     0.000378   117.900187
	   34 B(3,2,15)       =    121.127909    -0.000000     0.000933   121.128841
	   35 B(3,6,7)        =    117.104266    -0.000001    -0.005613   117.098653
	   36 B(3,6,16)       =    118.182138    -0.000001     0.000574   118.182712
	   37 B(4,3,5)        =    108.277851     0.000001     0.005295   108.283146
	   38 B(4,3,6)        =    107.833327    -0.000002    -0.022838   107.810489
	   39 B(5,3,6)        =    107.989675     0.000001     0.017750   108.007426
	   40 B(6,7,8)        =    120.111950    -0.000001    -0.000742   120.111208
	   41 B(6,7,12)       =    121.074483     0.000001    -0.000046   121.074437
	   42 B(7,6,16)       =    124.713432     0.000002     0.004754   124.718187
	   43 B(7,8,9)        =    121.497778     0.000001     0.001585   121.499363
	   44 B(7,8,18)       =    117.928951    -0.000003    -0.014304   117.914647
	   45 B(7,12,11)      =    120.110540    -0.000001    -0.003460   120.107080
	   46 B(8,7,12)       =    118.813245     0.000000     0.000753   118.813998
	   47 B(8,9,10)       =    119.452935     0.000000     0.000405   119.453341
	   48 B(8,9,17)       =    119.405468    -0.000001    -0.001675   119.403793
	   49 B(9,8,18)       =    120.573269     0.000002     0.012718   120.585988
	   50 B(9,10,11)      =    119.680531    -0.000003    -0.009555   119.670976
	   51 B(9,10,13)      =    124.277077     0.000003     0.003513   124.280590
	   52 B(10,9,17)      =    121.140380     0.000001     0.001245   121.141626
	   53 B(10,11,12)     =    120.438629     0.000003     0.010068   120.448697
	   54 B(10,11,20)     =    119.792496    -0.000001    -0.002823   119.789673
	   55 B(10,13,14)     =    103.708796     0.000020     0.054558   103.763354
	   56 B(11,10,13)     =    116.016301     0.000000     0.006047   116.022348
	   57 B(12,1,19)      =    118.454252    -0.000001    -0.005099   118.449153
	   58 B(12,11,20)     =    119.768866    -0.000002    -0.007242   119.761624
	   59 B(13,14,21)     =    111.883458     0.000003     0.013397   111.896855
	   60 B(13,14,22)     =    111.443247     0.000003     0.015334   111.458581
	   61 B(13,14,23)     =    105.452639     0.000003     0.020049   105.472688
	   62 B(21,14,22)     =    110.525741    -0.000002    -0.008439   110.517302
	   63 B(21,14,23)     =    108.637611    -0.000003    -0.022332   108.615278
	   64 B(22,14,23)     =    108.690107    -0.000003    -0.018978   108.671129
	   65 D(1,2,3,4)      =    120.664176    -0.000001    -0.353471   120.310705
	   66 D(1,2,3,5)      =   -123.202675    -0.000000    -0.347395  -123.550070
	   67 D(1,2,3,6)      =     -1.107829    -0.000000    -0.310508    -1.418337
	   68 D(1,12,7,6)     =     -0.152343     0.000000    -0.014673    -0.167016
	   69 D(1,12,7,8)     =    179.641796     0.000000    -0.025742   179.616054
	   70 D(1,12,11,10)   =    179.786981    -0.000000     0.014786   179.801767
	   71 D(1,12,11,20)   =     -0.248533    -0.000000     0.021183    -0.227350
	   72 D(2,1,12,7)     =      0.183603    -0.000000     0.010563     0.194166
	   73 D(2,1,12,11)    =    179.720357    -0.000000    -0.011295   179.709062
	   74 D(2,3,6,7)      =      1.137979    -0.000000     0.309835     1.447814
	   75 D(2,3,6,16)     =   -179.002323     0.000000     0.217996  -178.784327
	   76 D(3,2,1,12)     =      0.473543     0.000000     0.158040     0.631583
	   77 D(3,2,1,19)     =   -179.629995    -0.000000     0.081182  -179.548813
	   78 D(3,6,7,8)      =    179.687614     0.000000    -0.139340   179.548275
	   79 D(3,6,7,12)     =     -0.520900     0.000000    -0.150548    -0.671448
	   80 D(4,3,2,15)     =    -59.143852    -0.000001    -0.276786   -59.420638
	   81 D(4,3,6,7)      =   -120.304747     0.000000     0.349381  -119.955367
	   82 D(4,3,6,16)     =     59.554951     0.000000     0.257541    59.812492
	   83 D(5,3,2,15)     =     56.989296    -0.000000    -0.270709    56.718587
	   84 D(5,3,6,7)      =    122.896750     0.000000     0.345875   123.242624
	   85 D(5,3,6,16)     =    -57.243552     0.000000     0.254035   -56.989517
	   86 D(6,3,2,15)     =    179.084143     0.000000    -0.233823   178.850320
	   87 D(6,7,8,9)      =    179.930294    -0.000000    -0.005618   179.924675
	   88 D(6,7,8,18)     =     -0.053497     0.000000    -0.003982    -0.057479
	   89 D(6,7,12,11)    =   -179.684325    -0.000000     0.007407  -179.676918
	   90 D(7,8,9,10)     =      0.182490     0.000000     0.003334     0.185824
	   91 D(7,8,9,17)     =    179.786018     0.000000    -0.000603   179.785414
	   92 D(7,12,1,19)    =   -179.709195     0.000000     0.090121  -179.619074
	   93 D(7,12,11,10)   =     -0.672945    -0.000000    -0.006867    -0.679811
	   94 D(7,12,11,20)   =    179.291541     0.000000    -0.000470   179.291071
	   95 D(8,7,6,16)     =     -0.161939    -0.000000    -0.040846    -0.202785
	   96 D(8,7,12,11)    =      0.109814     0.000000    -0.003662     0.106152
	   97 D(8,9,10,11)    =     -0.739759    -0.000000    -0.013661    -0.753420
	   98 D(8,9,10,13)    =   -178.805216    -0.000000    -0.013945  -178.819161
	   99 D(9,8,7,12)     =      0.134121    -0.000000     0.005340     0.139460
	  100 D(9,10,11,12)   =      0.988984     0.000000     0.015503     1.004487
	  101 D(9,10,11,20)   =   -178.975493    -0.000000     0.009106  -178.966387
	  102 *D(9,10,13,14)  =      4.076798    -0.000000    -0.000000     4.076798
	  103 D(10,9,8,18)    =   -179.834144     0.000000     0.001650  -179.832494
	  104 *D(10,13,14,21) =    -65.534171     0.000000     0.000000   -65.534171
	  105 D(10,13,14,22)  =     58.778904     0.000000     0.010540    58.789445
	  106 D(10,13,14,23)  =    176.538771     0.000000     0.007678   176.546449
	  107 D(11,10,9,17)   =    179.663784    -0.000000    -0.009641   179.654143
	  108 *D(11,10,13,14) =   -174.052981    -0.000000     0.000000  -174.052981
	  109 D(11,12,1,19)   =     -0.172441     0.000000     0.068263    -0.104178
	  110 D(12,1,2,15)    =   -179.722102     0.000000     0.079879  -179.642223
	  111 D(12,7,6,16)    =    179.629547    -0.000000    -0.052054   179.577492
	  112 D(12,7,8,18)    =   -179.849670     0.000000     0.006976  -179.842694
	  113 D(12,11,10,13)  =    179.210230     0.000000     0.015746   179.225976
	  114 D(13,10,9,17)   =      1.598327    -0.000000    -0.009925     1.588402
	  115 D(13,10,11,20)  =     -0.754247     0.000000     0.009349    -0.744898
	  116 D(15,2,1,19)    =      0.174360    -0.000000     0.003021     0.177381
	  117 D(17,9,8,18)    =     -0.230616    -0.000000    -0.002288    -0.232904
	 ---------------------------------------------------------------------------
	Successfully symmetrized geometry.

  ==> Convergence Check <==

  Measures of convergence in internal coordinates in au.
  Criteria marked as inactive (o), active & met (*), and active & unmet ( ).
  ---------------------------------------------------------------------------------------------
   Step     Total Energy     Delta E     MAX Force     RMS Force      MAX Disp      RMS Disp   
  ---------------------------------------------------------------------------------------------
    Convergence Criteria             o    2.50e-03 *    1.70e-03 *    1.00e-02 *    6.70e-03 *
  ---------------------------------------------------------------------------------------------
      3   -1188.12277401   -4.65e-05 o    3.96e-04 *    5.56e-05 *    6.17e-03 *    1.75e-03 *  ~
  ---------------------------------------------------------------------------------------------


  **** Optimization is complete! (in 3 steps) ****

  ==> Optimization Summary <==

  Measures of convergence in internal coordinates in au.
  --------------------------------------------------------------------------------------------------------------- ~
   Step         Total Energy             Delta E       MAX Force       RMS Force        MAX Disp        RMS Disp  ~
  --------------------------------------------------------------------------------------------------------------- ~
      1   -1188.122755536050  -1188.122755536050      0.00047450      0.00015078      0.03448536      0.00789961  ~
      2   -1188.122727546860      0.000027989191      0.00117508      0.00020964      0.02175410      0.00480454  ~
      3   -1188.122774009607     -0.000046462748      0.00039632      0.00005558      0.00616923      0.00174798  ~
  --------------------------------------------------------------------------------------------------------------- ~

	Writing optimization data to binary file.
	Final energy is  -1188.1227740096074
	Final (previous) structure:
	Cartesian Geometry (in Angstrom)
	    N    -0.9801647250  -1.5222242042   0.1626382214
	    C    -2.2843597889  -1.1982031350   0.4272837758
	    C    -2.6070543898   0.3136445851   0.4976092171
	    F    -3.5440533632   0.5678918832  -0.4489468788
	    F    -3.1551434371   0.5532280483   1.7131706035
	    C    -1.4387962637   1.3165723067   0.2920026301
	    C    -0.1141989252   0.7519135028   0.0196703495
	    C     0.9811326120   1.5977340684  -0.1820017723
	    C     2.2441262463   1.0957323268  -0.4395533270
	    C     2.4347228520  -0.2939742958  -0.5046343808
	    C     1.3503105188  -1.1527327474  -0.2932336155
	    C     0.0835322137  -0.6385460028  -0.0399212001
	    S     3.9895801784  -1.0696126299  -0.7939140449
	    C     5.1562809271   0.3123507554  -0.8391635575
	    O    -3.1460234861  -2.0297403684   0.5950550566
	    O    -1.6821924786   2.5009120304   0.3642768110
	    H     3.0679672095   1.7820249740  -0.5939831695
	    H     0.8126359715   2.6690915638  -0.1303614842
	    H    -0.7964925932  -2.5173576553   0.1160791995
	    H     1.4992024276  -2.2293158742  -0.3266698550
	    H     4.9738115440   0.9716643469  -1.6912153778
	    H     5.1400027471   0.8796835268   0.0947151225
	    H     6.1425709141  -0.1430317789  -0.9550024028
	Saving final (previous) structure.
			--------------------------
			 OPTKING Finished Execution 
			--------------------------

    Final optimized geometry and variables:
    Molecular point group: c1
    Full point group: C1

    Geometry (in Angstrom), charge = 0, multiplicity = 1:

    N           -0.980164728866    -1.522224210153     0.162638222051
    C           -2.284359797833    -1.198203139742     0.427283777485
    C           -2.607054400049     0.313644586382     0.497609219093
    F           -3.544053377121     0.567891885411    -0.448946880538
    F           -3.155143449506     0.553228050497     1.713170610238
    C           -1.438796269402     1.316572311882     0.292002631259
    C           -0.114198925641     0.751913505725     0.019670349595
    C            0.981132615816     1.597734074708    -0.182001772997
    C            2.244126255136     1.095732331084    -0.439553328741
    C            2.434722861559    -0.293974296951    -0.504634382828
    C            1.350310524120    -1.152732751936    -0.293233616665
    C            0.083532214004    -0.638546005343    -0.039921200224
    S            3.989580194127    -1.069612634138    -0.793914048021
    C            5.156280947409     0.312350756622    -0.839163560829
    O           -3.146023498473    -2.029740376427     0.595055058971
    O           -1.682192485210     2.500912040257     0.364276812405
    H            3.067967221600     1.782024981009    -0.593983171872
    H            0.812635974714     2.669091574336    -0.130361484673
    H           -0.796492596312    -2.517357665208     0.116079199946
    H            1.499202433452    -2.229315882958    -0.326669856284
    H            4.973811563520     0.971664350765    -1.691215384484
    H            5.140002767262     0.879683530293     0.094715122844
    H            6.142570938271    -0.143031779424    -0.955002406531

	Removing binary optimization data file.
	Cleaning optimization helper files.

    Psi4 stopped on: Monday, 21 June 2021 10:23PM
    Psi4 wall time for execution: 0:11:56.59

*** Psi4 exiting successfully. Buy a developer a beer!
