
    -----------------------------------------------------------------------
          Psi4: An Open-Source Ab Initio Electronic Structure Package
                               Psi4 1.3.2 release

                         Git: Rev {HEAD} ecbda83 


    R. M. Parrish, L. A. Burns, D. G. A. Smith, A. C. Simmonett,
    A. E. DePrince III, E. G. Hohenstein, U. Bozkaya, A. Yu. Sokolov,
    R. Di Remigio, R. M. Richard, J. F. Gonthier, A. M. James,
    H. R. McAlexander, A. Kumar, M. Saitow, X. Wang, B. P. Pritchard,
    P. Verma, H. F. Schaefer III, K. Patkowski, R. A. King, E. F. Valeev,
    F. A. Evangelista, J. M. Turney, T. D. Crawford, and C. D. Sherrill,
    J. Chem. Theory Comput. 13(7) pp 3185--3197 (2017).
    (doi: 10.1021/acs.jctc.7b00174)


                         Additional Contributions by
    P. Kraus, H. Kruse, M. H. Lechner, M. C. Schieber, R. A. Shaw,
    A. Alenaizan, R. Galvelis, Z. L. Glick, S. Lehtola, and J. P. Misiewicz

    -----------------------------------------------------------------------


    Psi4 started on: Tuesday, 22 June 2021 05:40AM

    Process ID: 26947
    Host:       cpu-spot-dy-c5n2xlarge-1
    PSIDATADIR: /fsx/users/francis/anaconda3/envs/poltype-dev/share/psi4
    Memory:     500.0 MiB
    Threads:    1
    
  ==> Input File <==

--------------------------------------------------------------------------
molecule { 
0 1
 N   -1.077541   -1.486866    0.106311
 C   -2.381360   -1.162614    0.375184
 C   -2.699898    0.365580    0.481388
 F   -3.632711    0.660826   -0.487415
 F   -3.273991    0.584150    1.713986
 C   -1.501564    1.364792    0.319829
 C   -0.165754    0.793261    0.032100
 C    0.949889    1.642657   -0.131495
 C    2.220656    1.123509   -0.413709
 C    2.413680   -0.280245   -0.542413
 C    1.297084   -1.126971   -0.357292
 C    0.019939   -0.611849   -0.075201
 S    3.943033   -1.132860   -0.873244
 C    5.310776    0.065281   -0.900657
 O   -3.221413   -2.040250    0.512141
 O   -1.680786    2.574714    0.422386
 H    3.038898    1.829595   -0.534859
 H    0.796031    2.718317   -0.037710
 H   -0.937676   -2.486173    0.045265
 H    1.426498   -2.207710   -0.437550
 H    5.850126   -0.044621   -1.846431
 H    4.956464    1.092431   -0.811663
 H    5.987650   -0.157011   -0.069913
}
set optking { 
  frozen_dihedral = ("
    11 10 13 14
    9 10 13 14
    21 14 13 10
  ")
}
set {
  geom_maxiter 400
  g_convergence GAU_LOOSE
  dynamic_level 1
}
memory 16GB
set_num_threads(8)
psi4_io.set_default_path("/scratch/Psi4-ligand")
for _ in range(1):
  try:
    set opt_coordinates both
    optimize('wb97x-d/6-31+G*')
    break
  except OptimizationConvergenceError:
    break
  else:
    try:
      set opt_coordinates cartesian
      optimize('wb97x-d/6-31+G*')
      break
    except OptimizationConvergenceError:
      pass
clean()
--------------------------------------------------------------------------

  Memory set to  14.901 GiB by Python driver.
  Threads set to 8 by Python driver.
gradient() will perform analytic gradient computation.

*** tstart() called on cpu-spot-dy-c5n2xlarge-1
*** at Tue Jun 22 05:40:32 2021

   => Loading Basis Set <=

    Name: 6-31+G*
    Role: ORBITAL
    Keyword: BASIS
    atoms 1             entry N          line   138 file /fsx/users/francis/anaconda3/envs/poltype-dev/share/psi4/basis/6-31pgs.gbs 
    atoms 2-3, 6-12, 14 entry C          line   119 file /fsx/users/francis/anaconda3/envs/poltype-dev/share/psi4/basis/6-31pgs.gbs 
    atoms 4-5           entry F          line   176 file /fsx/users/francis/anaconda3/envs/poltype-dev/share/psi4/basis/6-31pgs.gbs 
    atoms 13            entry S          line   344 file /fsx/users/francis/anaconda3/envs/poltype-dev/share/psi4/basis/6-31pgs.gbs 
    atoms 15-16         entry O          line   157 file /fsx/users/francis/anaconda3/envs/poltype-dev/share/psi4/basis/6-31pgs.gbs 
    atoms 17-23         entry H          line    46 file /fsx/users/francis/anaconda3/envs/poltype-dev/share/psi4/basis/6-31pgs.gbs 


         ---------------------------------------------------------
                                   SCF
               by Justin Turney, Rob Parrish, Andy Simmonett
                          and Daniel G. A. Smith
                              RKS Reference
                        8 Threads,  15258 MiB Core
         ---------------------------------------------------------

  ==> Geometry <==

    Molecular point group: c1
    Full point group: C1

    Geometry (in Angstrom), charge = 0, multiplicity = 1:

       Center              X                  Y                   Z               Mass       
    ------------   -----------------  -----------------  -----------------  -----------------
         N           -1.028968579847    -1.495063610797     0.132848773570    14.003074004430
         C           -2.332787579847    -1.170811610797     0.401721773570    12.000000000000
         C           -2.651325579847     0.357382389203     0.507925773570    12.000000000000
         F           -3.584138579847     0.652628389203    -0.460877226430    18.998403162730
         F           -3.225418579847     0.575952389203     1.740523773570    18.998403162730
         C           -1.452991579847     1.356594389203     0.346366773570    12.000000000000
         C           -0.117181579847     0.785063389203     0.058637773570    12.000000000000
         C            0.998461420153     1.634459389203    -0.104957226430    12.000000000000
         C            2.269228420153     1.115311389203    -0.387171226430    12.000000000000
         C            2.462252420153    -0.288442610797    -0.515875226430    12.000000000000
         C            1.345656420153    -1.135168610797    -0.330754226430    12.000000000000
         C            0.068511420153    -0.620046610797    -0.048663226430    12.000000000000
         S            3.991605420153    -1.141057610797    -0.846706226430    31.972071174400
         C            5.359348420153     0.057083389203    -0.874119226430    12.000000000000
         O           -3.172840579847    -2.048447610797     0.538678773570    15.994914619570
         O           -1.632213579847     2.566516389203     0.448923773570    15.994914619570
         H            3.087470420153     1.821397389203    -0.508321226430     1.007825032230
         H            0.844603420153     2.710119389203    -0.011172226430     1.007825032230
         H           -0.889103579847    -2.494370610797     0.071802773570     1.007825032230
         H            1.475070420153    -2.215907610797    -0.411012226430     1.007825032230
         H            5.898698420153    -0.052818610797    -1.819893226430     1.007825032230
         H            5.005036420153     1.084233389203    -0.785125226430     1.007825032230
         H            6.036222420153    -0.165208610797    -0.043375226430     1.007825032230

  Running in c1 symmetry.

  Rotational constants: A =      0.03857  B =      0.00804  C =      0.00692 [cm^-1]
  Rotational constants: A =   1156.27574  B =    240.89076  C =    207.42382 [MHz]
  Nuclear repulsion = 1172.633111797709489

  Charge       = 0
  Multiplicity = 1
  Electrons    = 124
  Nalpha       = 62
  Nbeta        = 62

  ==> Algorithm <==

  SCF Algorithm Type is DF.
  DIIS enabled.
  MOM disabled.
  Fractional occupation disabled.
  Guess Type is SAD.
  Energy threshold   = 1.00e-08
  Density threshold  = 1.00e-08
  Integral threshold = 0.00e+00

  ==> Primary Basis <==

  Basis Set: 6-31+G*
    Blend: 6-31+G*
    Number of shells: 144
    Number of basis function: 322
    Number of Cartesian functions: 322
    Spherical Harmonics?: false
    Max angular momentum: 2

  ==> DFT Potential <==

   => Composite Functional: WB97X-D <= 

    wB97X-D Hyb-GGA Exchange-Correlation Functional

    J.-D. Chai and M. Head-Gordon, Phys. Chem. Chem. Phys. 10, 6615 (2008)

    Deriv               =              1
    GGA                 =           TRUE
    Meta                =          FALSE

    Exchange Hybrid     =           TRUE
    MP2 Hybrid          =          FALSE

   => Exchange-Correlation Functionals <=

    1.0000   wB97D range-separated functional

   => Exact (HF) Exchange <=

    0.7780            HF,LR [omega = 0.2000]
    0.2220               HF 

   => Molecular Quadrature <=

    Radial Scheme          =       TREUTLER
    Pruning Scheme         =           FLAT
    Nuclear Scheme         =       TREUTLER

    BS radius alpha        =              1
    Pruning alpha          =              1
    Radial Points          =             75
    Spherical Points       =            302
    Total Points           =         520859
    Total Blocks           =           3877
    Max Points             =            256
    Max Functions          =            288

   => WB97X-D: Empirical Dispersion <=

    Chai and Head-Gordon Dispersion Correction
    Chai, J.-D.; Head-Gordon, M. (2010), J. Chem. Phys., 132: 6615-6620

        s6 =       1.000000

   => Loading Basis Set <=

    Name: (6-31+G* AUX)
    Role: JKFIT
    Keyword: DF_BASIS_SCF
    atoms 1             entry N          line   252 file /fsx/users/francis/anaconda3/envs/poltype-dev/share/psi4/basis/heavy-aug-cc-pvdz-jkfit.gbs 
    atoms 2-3, 6-12, 14 entry C          line   194 file /fsx/users/francis/anaconda3/envs/poltype-dev/share/psi4/basis/heavy-aug-cc-pvdz-jkfit.gbs 
    atoms 4-5           entry F          line   368 file /fsx/users/francis/anaconda3/envs/poltype-dev/share/psi4/basis/heavy-aug-cc-pvdz-jkfit.gbs 
    atoms 13            entry S          line   730 file /fsx/users/francis/anaconda3/envs/poltype-dev/share/psi4/basis/heavy-aug-cc-pvdz-jkfit.gbs 
    atoms 15-16         entry O          line   310 file /fsx/users/francis/anaconda3/envs/poltype-dev/share/psi4/basis/heavy-aug-cc-pvdz-jkfit.gbs 
    atoms 17-23         entry H          line   116 file /fsx/users/francis/anaconda3/envs/poltype-dev/share/psi4/basis/heavy-aug-cc-pvdz-jkfit.gbs 

  ==> Pre-Iterations <==

   -------------------------------------------------------
    Irrep   Nso     Nmo     Nalpha   Nbeta   Ndocc  Nsocc
   -------------------------------------------------------
     A        322     322       0       0       0       0
   -------------------------------------------------------
    Total     322     322      62      62      62       0
   -------------------------------------------------------

  ==> Integral Setup <==

  ==> DiskDFJK: Density-Fitted J/K Matrices <==

    J tasked:                  Yes
    K tasked:                  Yes
    wK tasked:                 Yes
    Omega:               2.000E-01
    OpenMP threads:              8
    Integrals threads:           8
    Memory [MiB]:             8470
    Algorithm:                Core
    Integral Cache:           NONE
    Schwarz Cutoff:          1E-12
    Fitting Condition:       1E-10

   => Auxiliary Basis Set <=

  Basis Set: (6-31+G* AUX)
    Blend: HEAVY-AUG-CC-PVDZ-JKFIT
    Number of shells: 523
    Number of basis function: 1840
    Number of Cartesian functions: 1840
    Spherical Harmonics?: false
    Max angular momentum: 3

  Cached 100.0% of DFT collocation blocks in 2.904 [GiB].

  Minimum eigenvalue in the overlap matrix is 4.7953749338E-07.
  Using Symmetric Orthogonalization.

  SCF Guess: Superposition of Atomic Densities via on-the-fly atomic UHF.

  ==> Iterations <==

                           Total Energy        Delta E     RMS |[F,P]|

   @DF-RKS iter SAD: -1187.19420039242732   -1.18719e+03   0.00000e+00 
   @DF-RKS iter   1: -1187.53130663135903   -3.37106e-01   3.40539e-03 DIIS
   @DF-RKS iter   2: -1187.54108392027069   -9.77729e-03   3.71209e-03 DIIS
   @DF-RKS iter   3: -1188.08341172945052   -5.42328e-01   7.81559e-04 DIIS
   @DF-RKS iter   4: -1188.10744093554513   -2.40292e-02   2.69599e-04 DIIS
   @DF-RKS iter   5: -1188.11101319737668   -3.57226e-03   7.27939e-05 DIIS
   @DF-RKS iter   6: -1188.11141765470484   -4.04457e-04   2.38991e-05 DIIS
   @DF-RKS iter   7: -1188.11147915830816   -6.15036e-05   1.03780e-05 DIIS
   @DF-RKS iter   8: -1188.11149582364101   -1.66653e-05   3.92759e-06 DIIS
   @DF-RKS iter   9: -1188.11149868986922   -2.86623e-06   2.15390e-06 DIIS
   @DF-RKS iter  10: -1188.11149904541458   -3.55545e-07   7.23778e-07 DIIS
   @DF-RKS iter  11: -1188.11149909578307   -5.03685e-08   3.31795e-07 DIIS
   @DF-RKS iter  12: -1188.11149910635436   -1.05713e-08   1.51468e-07 DIIS
   @DF-RKS iter  13: -1188.11149910893437   -2.58001e-09   5.86736e-08 DIIS
   @DF-RKS iter  14: -1188.11149910924087   -3.06500e-10   2.46507e-08 DIIS
   @DF-RKS iter  15: -1188.11149910930203   -6.11635e-11   1.19996e-08 DIIS
   @DF-RKS iter  16: -1188.11149910931113   -9.09495e-12   6.39388e-09 DIIS
  Energy and wave function converged.


  ==> Post-Iterations <==

    Orbital Energies [Eh]
    ---------------------

    Doubly Occupied:                                                      

       1A    -89.086029     2A    -24.873324     3A    -24.872245  
       4A    -19.304466     5A    -19.293209     6A    -14.542142  
       7A    -10.509958     8A    -10.457972     9A    -10.434891  
      10A    -10.410908    11A    -10.395426    12A    -10.358776  
      13A    -10.355315    14A    -10.352394    15A    -10.352321  
      16A    -10.347636    17A     -8.103367    18A     -6.054187  
      19A     -6.049471    20A     -6.043526    21A     -1.381094  
      22A     -1.324782    23A     -1.188457    24A     -1.174184  
      25A     -1.091481    26A     -0.998836    27A     -0.939381  
      28A     -0.903447    29A     -0.885932    30A     -0.869407  
      31A     -0.798477    32A     -0.763311    33A     -0.750169  
      34A     -0.744396    35A     -0.693074    36A     -0.678381  
      37A     -0.665367    38A     -0.644120    39A     -0.628236  
      40A     -0.589743    41A     -0.584347    42A     -0.564210  
      43A     -0.561939    44A     -0.555591    45A     -0.553527  
      46A     -0.550707    47A     -0.547527    48A     -0.534859  
      49A     -0.521183    50A     -0.515927    51A     -0.506419  
      52A     -0.498947    53A     -0.490830    54A     -0.485744  
      55A     -0.474556    56A     -0.439233    57A     -0.429213  
      58A     -0.395547    59A     -0.394794    60A     -0.367136  
      61A     -0.339615    62A     -0.317305  

    Virtual:                                                              

      63A     -0.046032    64A      0.011624    65A      0.038975  
      66A      0.047541    67A      0.051939    68A      0.065271  
      69A      0.066513    70A      0.074905    71A      0.080221  
      72A      0.082624    73A      0.092639    74A      0.096191  
      75A      0.105111    76A      0.111045    77A      0.114640  
      78A      0.117261    79A      0.118874    80A      0.129915  
      81A      0.137515    82A      0.139682    83A      0.144721  
      84A      0.146277    85A      0.153554    86A      0.164729  
      87A      0.170839    88A      0.173541    89A      0.175334  
      90A      0.180308    91A      0.185131    92A      0.190528  
      93A      0.192148    94A      0.197478    95A      0.202148  
      96A      0.205791    97A      0.211184    98A      0.217402  
      99A      0.220620   100A      0.225874   101A      0.233923  
     102A      0.235021   103A      0.242383   104A      0.244223  
     105A      0.247803   106A      0.251051   107A      0.257610  
     108A      0.261143   109A      0.269942   110A      0.273838  
     111A      0.275517   112A      0.284758   113A      0.286539  
     114A      0.289430   115A      0.296377   116A      0.300590  
     117A      0.310521   118A      0.312902   119A      0.324240  
     120A      0.327354   121A      0.329312   122A      0.334330  
     123A      0.341740   124A      0.344137   125A      0.355037  
     126A      0.360549   127A      0.367729   128A      0.376885  
     129A      0.379923   130A      0.383320   131A      0.392284  
     132A      0.396875   133A      0.399614   134A      0.411719  
     135A      0.412804   136A      0.421258   137A      0.426566  
     138A      0.438063   139A      0.444985   140A      0.450551  
     141A      0.457886   142A      0.469497   143A      0.477253  
     144A      0.483453   145A      0.503541   146A      0.511675  
     147A      0.525752   148A      0.529171   149A      0.542336  
     150A      0.554873   151A      0.575431   152A      0.580768  
     153A      0.585488   154A      0.597096   155A      0.609112  
     156A      0.628381   157A      0.655052   158A      0.664741  
     159A      0.679640   160A      0.695968   161A      0.727318  
     162A      0.740639   163A      0.752286   164A      0.765300  
     165A      0.770158   166A      0.771536   167A      0.787936  
     168A      0.797722   169A      0.804362   170A      0.820587  
     171A      0.823354   172A      0.853792   173A      0.857998  
     174A      0.867036   175A      0.878768   176A      0.883247  
     177A      0.898146   178A      0.915991   179A      0.921735  
     180A      0.931754   181A      0.944178   182A      0.965827  
     183A      0.977710   184A      0.983279   185A      1.005869  
     186A      1.023782   187A      1.046924   188A      1.058634  
     189A      1.061019   190A      1.078627   191A      1.092537  
     192A      1.105202   193A      1.130882   194A      1.150614  
     195A      1.156830   196A      1.170313   197A      1.201340  
     198A      1.202246   199A      1.211725   200A      1.221065  
     201A      1.229297   202A      1.255053   203A      1.270020  
     204A      1.281981   205A      1.293997   206A      1.321901  
     207A      1.323509   208A      1.335457   209A      1.353030  
     210A      1.384603   211A      1.404127   212A      1.407050  
     213A      1.415613   214A      1.419226   215A      1.443603  
     216A      1.445834   217A      1.452579   218A      1.465198  
     219A      1.467384   220A      1.484044   221A      1.503817  
     222A      1.511879   223A      1.525728   224A      1.530617  
     225A      1.546546   226A      1.591119   227A      1.620706  
     228A      1.650086   229A      1.664104   230A      1.671046  
     231A      1.709741   232A      1.749559   233A      1.753725  
     234A      1.757434   235A      1.758910   236A      1.761031  
     237A      1.768696   238A      1.780957   239A      1.787743  
     240A      1.821214   241A      1.838869   242A      1.864326  
     243A      1.874020   244A      1.895975   245A      1.899492  
     246A      1.910185   247A      1.919644   248A      1.945605  
     249A      1.963341   250A      1.967170   251A      1.971282  
     252A      2.004162   253A      2.039298   254A      2.049780  
     255A      2.057251   256A      2.058905   257A      2.080996  
     258A      2.090594   259A      2.099223   260A      2.112348  
     261A      2.146011   262A      2.152643   263A      2.167008  
     264A      2.200562   265A      2.205459   266A      2.210709  
     267A      2.248007   268A      2.255947   269A      2.262511  
     270A      2.270275   271A      2.301392   272A      2.308787  
     273A      2.314454   274A      2.346782   275A      2.351116  
     276A      2.368204   277A      2.381022   278A      2.403257  
     279A      2.462856   280A      2.465781   281A      2.510728  
     282A      2.514304   283A      2.568877   284A      2.625764  
     285A      2.657330   286A      2.676004   287A      2.706135  
     288A      2.727160   289A      2.736737   290A      2.769418  
     291A      2.775618   292A      2.824975   293A      2.828868  
     294A      2.850240   295A      2.899130   296A      2.952659  
     297A      2.959567   298A      3.031262   299A      3.122854  
     300A      3.155317   301A      3.211936   302A      3.234794  
     303A      3.338373   304A      3.379723   305A      3.462913  
     306A      3.486772   307A      4.035345   308A      4.279798  
     309A      4.319136   310A      4.333505   311A      4.360995  
     312A      4.377889   313A      4.416555   314A      4.469893  
     315A      4.486048   316A      4.521462   317A      4.580670  
     318A      4.779950   319A      4.836029   320A      5.114703  
     321A      5.698734   322A      7.142639  

    Final Occupation by Irrep:
              A 
    DOCC [    62 ]

  @DF-RKS Final Energy: -1188.11149910931113

   => Energetics <=

    Nuclear Repulsion Energy =           1172.6331117977094891
    One-Electron Energy =               -3959.3512378871337205
    Two-Electron Energy =                1688.0576269635512290
    DFT Exchange-Correlation Energy =     -89.4376879350840142
    Empirical Dispersion Energy =          -0.0133120483541637
    VV10 Nonlocal Energy =                  0.0000000000000000
    Total Energy =                      -1188.1114991093111257

Computation Completed


Properties will be evaluated at   0.000000,   0.000000,   0.000000 [a0]

Properties computed using the SCF density matrix

  Nuclear Dipole Moment: [e a0]
     X:    26.6253      Y:    -0.5378      Z:    -4.5129

  Electronic Dipole Moment: [e a0]
     X:   -23.3288      Y:     0.2033      Z:     3.9397

  Dipole Moment: [e a0]
     X:     3.2965      Y:    -0.3345      Z:    -0.5732     Total:     3.3627

  Dipole Moment: [D]
     X:     8.3789      Y:    -0.8502      Z:    -1.4569     Total:     8.5470


*** tstop() called on cpu-spot-dy-c5n2xlarge-1 at Tue Jun 22 05:41:49 2021
Module time:
	user time   =     571.33 seconds =       9.52 minutes
	system time =      10.37 seconds =       0.17 minutes
	total time  =         77 seconds =       1.28 minutes
Total time:
	user time   =     571.33 seconds =       9.52 minutes
	system time =      10.37 seconds =       0.17 minutes
	total time  =         77 seconds =       1.28 minutes

*** tstart() called on cpu-spot-dy-c5n2xlarge-1
*** at Tue Jun 22 05:41:49 2021


         ------------------------------------------------------------
                                   SCF GRAD                          
                          Rob Parrish, Justin Turney,                
                       Andy Simmonett, and Alex Sokolov              
         ------------------------------------------------------------

  ==> Geometry <==

    Molecular point group: c1
    Full point group: C1

    Geometry (in Angstrom), charge = 0, multiplicity = 1:

       Center              X                  Y                   Z               Mass       
    ------------   -----------------  -----------------  -----------------  -----------------
         N           -1.028968579847    -1.495063610797     0.132848773570    14.003074004430
         C           -2.332787579847    -1.170811610797     0.401721773570    12.000000000000
         C           -2.651325579847     0.357382389203     0.507925773570    12.000000000000
         F           -3.584138579847     0.652628389203    -0.460877226430    18.998403162730
         F           -3.225418579847     0.575952389203     1.740523773570    18.998403162730
         C           -1.452991579847     1.356594389203     0.346366773570    12.000000000000
         C           -0.117181579847     0.785063389203     0.058637773570    12.000000000000
         C            0.998461420153     1.634459389203    -0.104957226430    12.000000000000
         C            2.269228420153     1.115311389203    -0.387171226430    12.000000000000
         C            2.462252420153    -0.288442610797    -0.515875226430    12.000000000000
         C            1.345656420153    -1.135168610797    -0.330754226430    12.000000000000
         C            0.068511420153    -0.620046610797    -0.048663226430    12.000000000000
         S            3.991605420153    -1.141057610797    -0.846706226430    31.972071174400
         C            5.359348420153     0.057083389203    -0.874119226430    12.000000000000
         O           -3.172840579847    -2.048447610797     0.538678773570    15.994914619570
         O           -1.632213579847     2.566516389203     0.448923773570    15.994914619570
         H            3.087470420153     1.821397389203    -0.508321226430     1.007825032230
         H            0.844603420153     2.710119389203    -0.011172226430     1.007825032230
         H           -0.889103579847    -2.494370610797     0.071802773570     1.007825032230
         H            1.475070420153    -2.215907610797    -0.411012226430     1.007825032230
         H            5.898698420153    -0.052818610797    -1.819893226430     1.007825032230
         H            5.005036420153     1.084233389203    -0.785125226430     1.007825032230
         H            6.036222420153    -0.165208610797    -0.043375226430     1.007825032230

  Nuclear repulsion = 1172.633111797709489

  ==> Basis Set <==

  Basis Set: 6-31+G*
    Blend: 6-31+G*
    Number of shells: 144
    Number of basis function: 322
    Number of Cartesian functions: 322
    Spherical Harmonics?: false
    Max angular momentum: 2

  ==> DFJKGrad: Density-Fitted SCF Gradients <==

    Gradient:                    1
    J tasked:                  Yes
    K tasked:                  Yes
    wK tasked:                 Yes
    Omega:               2.000E-01
    OpenMP threads:              8
    Integrals threads:           8
    Memory [MiB]:            11444
    Schwarz Cutoff:          0E+00
    Fitting Condition:       1E-10

   => Auxiliary Basis Set <=

  Basis Set: (6-31+G* AUX)
    Blend: HEAVY-AUG-CC-PVDZ-JKFIT
    Number of shells: 523
    Number of basis function: 1840
    Number of Cartesian functions: 1840
    Spherical Harmonics?: false
    Max angular momentum: 3

  ==> DFT Potential <==

   => Composite Functional: WB97X-D <= 

    wB97X-D Hyb-GGA Exchange-Correlation Functional

    J.-D. Chai and M. Head-Gordon, Phys. Chem. Chem. Phys. 10, 6615 (2008)

    Deriv               =              1
    GGA                 =           TRUE
    Meta                =          FALSE

    Exchange Hybrid     =           TRUE
    MP2 Hybrid          =          FALSE

   => Exchange-Correlation Functionals <=

    1.0000   wB97D range-separated functional

   => Exact (HF) Exchange <=

    0.7780            HF,LR [omega = 0.2000]
    0.2220               HF 

   => Molecular Quadrature <=

    Radial Scheme          =       TREUTLER
    Pruning Scheme         =           FLAT
    Nuclear Scheme         =       TREUTLER

    BS radius alpha        =              1
    Pruning alpha          =              1
    Radial Points          =             75
    Spherical Points       =            302
    Total Points           =         520859
    Total Blocks           =           3877
    Max Points             =            256
    Max Functions          =            288


  -Total Gradient:
     Atom            X                  Y                   Z
    ------   -----------------  -----------------  -----------------
       1       -0.009424118154    -0.010922478647     0.001604169040
       2        0.007943315031     0.011491342432    -0.000973364126
       3        0.012276829741    -0.003881872580    -0.003779467448
       4       -0.011880201852     0.003851101710    -0.012860225624
       5       -0.007388900248     0.002998651107     0.017405972967
       6       -0.008816100454    -0.021696658061     0.000733403238
       7        0.000039311108     0.007521825767    -0.000463614159
       8       -0.003857369392     0.013719201402     0.002550834819
       9        0.006713752065     0.004304019094    -0.000214689167
      10        0.008772999456    -0.010530686336    -0.007228836751
      11        0.003903310809    -0.002216381110     0.000394561209
      12       -0.002051660621    -0.006200782617     0.000763218351
      13        0.008033034787     0.001325933219     0.000859695745
      14        0.001206016063    -0.001353232791    -0.001343894153
      15       -0.008611915254    -0.021742597854     0.000896413419
      16        0.004911879814     0.029160497978     0.000580094472
      17        0.000501786763     0.003231269975     0.000078106300
      18       -0.000844060371     0.003898371859     0.000424696879
      19       -0.004089146882     0.001629068205     0.000995110645
      20        0.000220943777    -0.002562976881    -0.000475029765
      21        0.001890077999    -0.000461632940    -0.001208130871
      22       -0.000449466807    -0.000406509047     0.000210546247
      23        0.001691991618    -0.001462962296     0.000862731982


*** tstop() called on cpu-spot-dy-c5n2xlarge-1 at Tue Jun 22 05:42:12 2021
Module time:
	user time   =     145.93 seconds =       2.43 minutes
	system time =       3.68 seconds =       0.06 minutes
	total time  =         23 seconds =       0.38 minutes
Total time:
	user time   =     717.26 seconds =      11.95 minutes
	system time =      14.05 seconds =       0.23 minutes
	total time  =        100 seconds =       1.67 minutes

			-----------------------------------------
			 OPTKING 2.0: for geometry optimizations 
			  - R.A. King,  Bethel University        
			-----------------------------------------
	At level 1: Red. Int., RFO, no backsteps, dynamic trust

	Internal coordinates to be generated automatically.
	Detected frag 1 with atoms:  1 2 3 4 5 6 7 8 9 10 11 12 13 14 15 16 17 18 19 20
	 21 22 23
	---Fragment 1 Bond Connectivity---
	 1 : 2 12 19
	 2 : 1 3 15
	 3 : 2 4 5 6
	 4 : 3
	 5 : 3
	 6 : 3 7 16
	 7 : 6 8 12
	 8 : 7 9 18
	 9 : 8 10 17
	 10 : 9 11 13
	 11 : 10 12 20
	 12 : 1 7 11
	 13 : 10 14
	 14 : 13 21 22 23
	 15 : 2
	 16 : 6
	 17 : 9
	 18 : 8
	 19 : 1
	 20 : 11
	 21 : 14
	 22 : 14
	 23 : 14

	Assuming in current code that numbering for constraints corresponds to unified fragment.
	Frozen dihedral atom list: 
	    11    10    13    14
	     9    10    13    14
	    21    14    13    10
	---Fragment 1 Geometry and Gradient---
	 N          -1.9444688076       -2.8252607645        0.2510477982
	 C          -4.4083296348       -2.2125132889        0.7591441307
	 C          -5.0102792153        0.6753548377        0.9598406041
	 F          -6.7730403116        1.2332889173       -0.8709317354
	 F          -6.0951577559        1.0883922769        3.2891132469
	 C          -2.7457561485        2.5635918589        0.6545383410
	 C          -0.2214410929        1.4835547967        0.1108093327
	 C           1.8868186309        3.0886806088       -0.1983404128
	 C           4.2882202302        2.1076330702       -0.7316475816
	 C           4.6529827258       -0.5450775373       -0.9748628929
	 C           2.5429220931       -2.1451577806       -0.6250349028
	 C           0.1294678206       -1.1717182794       -0.0919601703
	 S           7.5430410450       -2.1562863778       -1.6000428767
	 C          10.1277007250        0.1078719719       -1.6518459389
	 O          -5.9957997357       -3.8710049668        1.0179553516
	 O          -3.0844366442        4.8500130721        0.8483429833
	 H           5.8344735145        3.4419422312       -0.9605879017
	 H           1.5960691487        5.1213834129       -0.0211124482
	 H          -1.6801622631       -4.7136773098        0.1356875771
	 H           2.7874791099       -4.1874585037       -0.7767005422
	 H          11.1469245108       -0.0998127087       -3.4390997755
	 H           9.4581480820        2.0489041617       -1.4836716521
	 H          11.4068072064       -0.3121990280       -0.0819672986
	            -0.0094241182       -0.0109224786        0.0016041690
	             0.0079433150        0.0114913424       -0.0009733641
	             0.0122768297       -0.0038818726       -0.0037794674
	            -0.0118802019        0.0038511017       -0.0128602256
	            -0.0073889002        0.0029986511        0.0174059730
	            -0.0088161005       -0.0216966581        0.0007334032
	             0.0000393111        0.0075218258       -0.0004636142
	            -0.0038573694        0.0137192014        0.0025508348
	             0.0067137521        0.0043040191       -0.0002146892
	             0.0087729995       -0.0105306863       -0.0072288368
	             0.0039033108       -0.0022163811        0.0003945612
	            -0.0020516606       -0.0062007826        0.0007632184
	             0.0080330348        0.0013259332        0.0008596957
	             0.0012060161       -0.0013532328       -0.0013438942
	            -0.0086119153       -0.0217425979        0.0008964134
	             0.0049118798        0.0291604980        0.0005800945
	             0.0005017868        0.0032312700        0.0000781063
	            -0.0008440604        0.0038983719        0.0004246969
	            -0.0040891469        0.0016290682        0.0009951106
	             0.0002209438       -0.0025629769       -0.0004750298
	             0.0018900780       -0.0004616329       -0.0012081309
	            -0.0004494668       -0.0004065090        0.0002105462
	             0.0016919916       -0.0014629623        0.0008627320

	Previous optimization step data not found.  Starting new optimization.

	---Fragment 1 Intrafragment Coordinates---
	 - Coordinate -           - BOHR/RAD -       - ANG/DEG -
	 R(1,2)           =         2.589253	       1.370174
	 R(1,12)          =         2.674522	       1.415296
	 R(1,19)          =         1.910310	       1.010892
	 R(2,3)           =         2.956756	       1.564648
	 R(2,15)          =         2.310333	       1.222576
	 R(3,4)           =         2.601989	       1.376913
	 R(3,5)           =         2.602513	       1.377190
	 R(3,6)           =         2.964239	       1.568608
	 R(6,7)           =         2.798980	       1.481156
	 R(6,16)          =         2.319480	       1.227416
	 R(7,8)           =         2.667726	       1.411700
	 R(7,12)          =         2.686025	       1.421383
	 R(8,9)           =         2.648320	       1.401431
	 R(8,18)          =         2.061025	       1.090648
	 R(9,10)          =         2.688695	       1.422796
	 R(9,17)          =         2.055163	       1.087545
	 R(10,11)         =         2.671141	       1.413507
	 R(10,13)         =         3.367385	       1.781943
	 R(11,12)         =         2.656410	       1.405712
	 R(11,20)         =         2.062475	       1.091415
	 R(13,14)         =         3.436504	       1.818520
	 R(14,21)         =         2.067904	       1.094288
	 R(14,22)         =         2.060143	       1.090181
	 R(14,23)         =         2.068113	       1.094398
	 B(1,2,3)         =         2.024371	     115.987927
	 B(1,2,15)        =         2.101271	     120.393971
	 B(1,12,7)        =         2.094616	     120.012673
	 B(1,12,11)       =         2.098669	     120.244862
	 B(2,1,12)        =         2.235397	     128.078821
	 B(2,1,19)        =         1.957833	     112.175563
	 B(2,3,4)         =         1.875063	     107.433172
	 B(2,3,5)         =         1.876145	     107.495216
	 B(2,3,6)         =         2.048392	     117.364238
	 B(3,2,15)        =         2.157529	     123.617300
	 B(3,6,7)         =         2.052386	     117.593064
	 B(3,6,16)        =         2.103394	     120.515573
	 B(4,3,5)         =         1.889456	     108.257881
	 B(4,3,6)         =         1.884402	     107.968293
	 B(5,3,6)         =         1.885508	     108.031629
	 B(6,7,8)         =         2.097949	     120.203596
	 B(6,7,12)        =         2.110565	     120.926477
	 B(7,6,16)        =         2.127378	     121.889791
	 B(7,8,9)         =         2.114196	     121.134492
	 B(7,8,18)        =         2.062314	     118.161882
	 B(7,12,11)       =         2.089894	     119.742104
	 B(8,7,12)        =         2.074648	     118.868557
	 B(8,9,10)        =         2.102168	     120.445341
	 B(8,9,17)        =         2.053473	     117.655310
	 B(9,8,18)        =         2.106661	     120.702779
	 B(9,10,11)       =         2.062346	     118.163722
	 B(9,10,13)       =         2.220939	     127.250446
	 B(10,9,17)       =         2.127523	     121.898103
	 B(10,11,12)      =         2.122886	     121.632429
	 B(10,11,20)      =         2.082734	     119.331865
	 B(10,13,14)      =         1.910342	     109.454559
	 B(11,10,13)      =         1.999474	     114.561440
	 B(12,1,19)       =         2.089942	     119.744833
	 B(12,11,20)      =         2.077561	     119.035490
	 B(13,14,21)      =         1.893952	     108.515470
	 B(13,14,22)      =         1.955291	     112.029923
	 B(13,14,23)      =         1.896430	     108.657459
	 B(21,14,22)      =         1.902195	     108.987748
	 B(21,14,23)      =         1.907976	     109.318968
	 B(22,14,23)      =         1.907544	     109.294225
	 D(1,2,3,4)       =         2.090706	     119.788610
	 D(1,2,3,5)       =        -2.162423	    -123.897726
	 D(1,2,3,6)       =        -0.034693	      -1.987746
	 D(1,12,7,6)      =        -0.010707	      -0.613483
	 D(1,12,7,8)      =         3.123467	     178.961466
	 D(1,12,11,10)    =        -3.140320	    -179.927076
	 D(1,12,11,20)    =         0.004248	       0.243412
	 D(2,1,12,7)      =         0.012717	       0.728613
	 D(2,1,12,11)     =        -3.132703	    -179.490682
	 D(2,3,6,7)       =         0.036219	       2.075223
	 D(2,3,6,16)      =        -3.113184	    -178.372312
	 D(3,2,1,12)      =         0.011186	       0.640915
	 D(3,2,1,19)      =        -3.136112	    -179.685956
	 D(3,6,7,8)       =         3.135145	     179.630583
	 D(3,6,7,12)      =        -0.013965	      -0.800118
	 D(4,3,2,15)      =        -1.045209	     -59.886046
	 D(4,3,6,7)       =        -2.084341	    -119.423932
	 D(4,3,6,16)      =         1.049441	      60.128533
	 D(5,3,2,15)      =         0.984848	      56.427618
	 D(5,3,6,7)       =         2.159107	     123.707732
	 D(5,3,6,16)      =        -0.990296	     -56.739803
	 D(6,3,2,15)      =         3.112578	     178.337598
	 D(6,7,8,9)       =        -3.133487	    -179.535556
	 D(6,7,8,18)      =         0.002302	       0.131871
	 D(6,7,12,11)     =         3.134693	     179.604704
	 D(7,8,9,10)      =         0.000316	       0.018115
	 D(7,8,9,17)      =         3.134958	     179.619876
	 D(7,12,1,19)     =        -3.122791	    -178.922760
	 D(7,12,11,10)    =        -0.002544	      -0.145776
	 D(7,12,11,20)    =        -3.141161	    -179.975288
	 D(8,7,6,16)      =         0.001478	       0.084667
	 D(8,7,12,11)     =        -0.014318	      -0.820348
	 D(8,9,10,11)     =        -0.016943	      -0.970787
	 D(8,9,10,13)     =        -3.125316	    -179.067443
	 D(9,8,7,12)      =         0.015470	       0.886340
	 D(9,10,11,12)    =         0.018108	       1.037511
	 D(9,10,11,20)    =        -3.126469	    -179.133470
	*D(9,10,13,14)    =         0.078519	       4.498834
	 D(10,9,8,18)     =        -3.135325	    -179.640883
	*D(10,13,14,21)   =        -2.199422	    -126.017624
	 D(10,13,14,22)   =        -0.098476	      -5.642281
	 D(10,13,14,23)   =         2.010811	     115.210970
	 D(11,10,9,17)    =         3.131901	     179.444699
	*D(11,10,13,14)   =        -3.030873	    -173.656256
	 D(11,12,1,19)    =         0.014974	       0.857946
	 D(12,1,2,15)     =        -3.135889	    -179.673183
	 D(12,7,6,16)     =         3.135553	     179.653967
	 D(12,7,8,18)     =        -3.131928	    -179.446234
	 D(12,11,10,13)   =         3.130628	     179.371799
	 D(13,10,9,17)    =         0.023528	       1.348043
	 D(13,10,11,20)   =        -0.013948	      -0.799182
	 D(15,2,1,19)     =        -0.000000	      -0.000000
	 D(17,9,8,18)     =        -0.000683	      -0.039123

	Current energy   :     -1188.1114991093

	Generating empirical Hessian (Schlegel '84) for each fragment.
	Taking RFO optimization step.
	Going to follow RFO solution 1.
	Using RFO vector 1.
	Norm of target step-size    0.19147
	Projected energy change by RFO approximation:        -0.0116497606

	Back-transformation to cartesian coordinates...
	Could not converge backtransformation.
	Using first guess instead.

	Back-transformation to cartesian coordinates to adjust frozen coordinates...
	Successfully converged to displaced geometry.

	--- Internal Coordinate Step in ANG or DEG, aJ/ANG or AJ/DEG ---
	 ---------------------------------------------------------------------------
	   Coordinate                Previous        Force       Change         New 
	   ----------                --------       ------       ------       ------
	    1 R(1,2)          =      1.370174    -0.008820    -0.000795     1.369379
	    2 R(1,12)         =      1.415296    -0.132590    -0.019533     1.395764
	    3 R(1,19)         =      1.010892     0.018629     0.002611     1.013503
	    4 R(2,3)          =      1.564648    -0.095658    -0.021030     1.543617
	    5 R(2,15)         =      1.222576    -0.178228    -0.009969     1.212607
	    6 R(3,4)          =      1.376913    -0.147907    -0.018555     1.358358
	    7 R(3,5)          =      1.377190    -0.157753    -0.019895     1.357295
	    8 R(3,6)          =      1.568608    -0.091819    -0.020807     1.547801
	    9 R(6,7)          =      1.481156    -0.081261    -0.014598     1.466559
	   10 R(6,16)         =      1.227416    -0.231519    -0.015411     1.212005
	   11 R(7,8)          =      1.411700    -0.106126    -0.015068     1.396631
	   12 R(7,12)         =      1.421383    -0.119226    -0.018062     1.403321
	   13 R(8,9)          =      1.401431    -0.144602    -0.019869     1.381562
	   14 R(8,18)         =      1.090648    -0.033095    -0.005757     1.084890
	   15 R(9,10)         =      1.422796    -0.149031    -0.021596     1.401199
	   16 R(9,17)         =      1.087545    -0.020195    -0.003007     1.084538
	   17 R(10,11)        =      1.413507    -0.112141    -0.015988     1.397519
	   18 R(10,13)        =      1.781943    -0.096602    -0.021504     1.760439
	   19 R(11,12)        =      1.405712    -0.140041    -0.019088     1.386623
	   20 R(11,20)        =      1.091415    -0.021282    -0.003716     1.087699
	   21 R(13,14)        =      1.818520    -0.006311     0.003249     1.821769
	   22 R(14,21)        =      1.094288    -0.016385    -0.002007     1.092281
	   23 R(14,22)        =      1.090181     0.001741     0.003154     1.093334
	   24 R(14,23)        =      1.094398    -0.016473    -0.001517     1.092882
	   25 B(1,2,3)        =    115.987927    -0.000059    -0.061090   115.926837
	   26 B(1,2,15)       =    120.393971     0.000812     2.295268   122.689239
	   27 B(1,12,7)       =    120.012673     0.000216     0.431536   120.444209
	   28 B(1,12,11)      =    120.244862    -0.000399    -1.073835   119.171026
	   29 B(2,1,12)       =    128.078821    -0.000195    -0.690562   127.388259
	   30 B(2,1,19)       =    112.175563     0.000385     1.600508   113.776072
	   31 B(2,3,4)        =    107.433172    -0.000025    -0.162065   107.271107
	   32 B(2,3,5)        =    107.495216    -0.000020    -0.062839   107.432376
	   33 B(2,3,6)        =    117.364238     0.000068     0.497316   117.861554
	   34 B(3,2,15)       =    123.617300    -0.000753    -2.233690   121.383610
	   35 B(3,6,7)        =    117.593064    -0.000146    -0.377870   117.215194
	   36 B(3,6,16)       =    120.515573    -0.000746    -2.189508   118.326065
	   37 B(4,3,5)        =    108.257881    -0.000024    -0.287580   107.970302
	   38 B(4,3,6)        =    107.968293    -0.000009    -0.089119   107.879174
	   39 B(5,3,6)        =    108.031629     0.000005     0.041926   108.073554
	   40 B(6,7,8)        =    120.203596    -0.000035    -0.017000   120.186595
	   41 B(6,7,12)       =    120.926477     0.000116     0.205363   121.131839
	   42 B(7,6,16)       =    121.889791     0.000892     2.568416   124.458207
	   43 B(7,8,9)        =    121.134492     0.000072     0.199584   121.334076
	   44 B(7,8,18)       =    118.161882    -0.000011     0.002213   118.164095
	   45 B(7,12,11)      =    119.742104     0.000183     0.640484   120.382587
	   46 B(8,7,12)       =    118.868557    -0.000081    -0.187431   118.681126
	   47 B(8,9,10)       =    120.445341    -0.000224    -0.736651   119.708690
	   48 B(8,9,17)       =    117.655310     0.000282     1.096626   118.751936
	   49 B(9,8,18)       =    120.702779    -0.000060    -0.200961   120.501818
	   50 B(9,10,11)      =    118.163722     0.000459     1.378305   119.542027
	   51 B(9,10,13)      =    127.250446    -0.000475    -1.404014   125.846432
	   52 B(10,9,17)      =    121.898103    -0.000057    -0.360510   121.537593
	   53 B(10,11,12)     =    121.632429    -0.000409    -1.290434   120.341995
	   54 B(10,11,20)     =    119.331865     0.000199     0.614571   119.946436
	   55 B(10,13,14)     =    109.454559    -0.001478    -4.235958   105.218601
	   56 B(11,10,13)     =    114.561440     0.000015     0.024935   114.586375
	   57 B(12,1,19)      =    119.744833    -0.000190    -0.910162   118.834671
	   58 B(12,11,20)     =    119.035490     0.000210     0.676033   119.711522
	   59 B(13,14,21)     =    108.515470    -0.000065    -0.252435   108.263036
	   60 B(13,14,22)     =    112.029923     0.000043     0.030123   112.060046
	   61 B(13,14,23)     =    108.657459     0.000057     0.485094   109.142553
	   62 B(21,14,22)     =    108.987748    -0.000033    -0.396234   108.591513
	   63 B(21,14,23)     =    109.318968     0.000067     0.453620   109.772588
	   64 B(22,14,23)     =    109.294225    -0.000067    -0.305145   108.989080
	   65 D(1,2,3,4)      =    119.788610     0.000005     0.200007   119.988618
	   66 D(1,2,3,5)      =   -123.897726    -0.000007    -0.247360  -124.145086
	   67 D(1,2,3,6)      =     -1.987746     0.000002     0.104872    -1.882874
	   68 D(1,12,7,6)     =     -0.613483     0.000001     0.139624    -0.473859
	   69 D(1,12,7,8)     =    178.961466     0.000003     0.324016   179.285482
	   70 D(1,12,11,10)   =   -179.927076    -0.000001    -0.074736  -180.001812
	   71 D(1,12,11,20)   =      0.243412    -0.000002    -0.166808     0.076604
	   72 D(2,1,12,7)     =      0.728613    -0.000001    -0.142648     0.585965
	   73 D(2,1,12,11)    =   -179.490682    -0.000004    -0.458079  -179.948760
	   74 D(2,3,6,7)      =      2.075223    -0.000002    -0.101854     1.973369
	   75 D(2,3,6,16)     =   -178.372312    -0.000000     0.091767  -178.280545
	   76 D(3,2,1,12)     =      0.640915    -0.000000     0.006118     0.647033
	   77 D(3,2,1,19)     =   -179.685956    -0.000001    -0.038262  -179.724218
	   78 D(3,6,7,8)      =    179.630583    -0.000002    -0.203481   179.427102
	   79 D(3,6,7,12)     =     -0.800118     0.000000    -0.017034    -0.817152
	   80 D(4,3,2,15)     =    -59.886046     0.000004     0.073059   -59.812986
	   81 D(4,3,6,7)      =   -119.423932    -0.000003    -0.162534  -119.586466
	   82 D(4,3,6,16)     =     60.128533    -0.000001     0.031087    60.159620
	   83 D(5,3,2,15)     =     56.427618    -0.000008    -0.374308    56.053309
	   84 D(5,3,6,7)      =    123.707732     0.000004     0.200585   123.908317
	   85 D(5,3,6,16)     =    -56.739803     0.000006     0.394206   -56.345597
	   86 D(6,3,2,15)     =    178.337598     0.000000    -0.022077   178.315521
	   87 D(6,7,8,9)      =   -179.535556    -0.000003    -0.426721  -179.962277
	   88 D(6,7,8,18)     =      0.131871    -0.000000    -0.056184     0.075687
	   89 D(6,7,12,11)    =    179.604704     0.000004     0.462672   180.067375
	   90 D(7,8,9,10)     =      0.018115     0.000003     0.311416     0.329531
	   91 D(7,8,9,17)     =    179.619876     0.000002     0.231721   179.851597
	   92 D(7,12,1,19)    =   -178.922760    -0.000002    -0.103448  -179.026208
	   93 D(7,12,11,10)   =     -0.145776    -0.000003    -0.390424    -0.536199
	   94 D(7,12,11,20)   =   -179.975288    -0.000004    -0.482496  -180.457784
	   95 D(8,7,6,16)     =      0.084667    -0.000002    -0.386492    -0.301824
	   96 D(8,7,12,11)    =     -0.820348     0.000006     0.647064    -0.173284
	   97 D(8,9,10,11)    =     -0.970787    -0.000002    -0.063690    -1.034477
	   98 D(8,9,10,13)    =   -179.067443    -0.000000    -0.038669  -179.106111
	   99 D(9,8,7,12)     =      0.886340    -0.000005    -0.610300     0.276039
	  100 D(9,10,11,12)   =      1.037511     0.000002     0.103239     1.140750
	  101 D(9,10,11,20)   =   -179.133470     0.000003     0.195620  -178.937850
	  102 *D(9,10,13,14)  =      4.498834     0.000000     0.000000     4.498834
	  103 D(10,9,8,18)    =   -179.640883    -0.000000    -0.068430  -179.709314
	  104 *D(10,13,14,21) =   -126.017624    -0.000000    -0.000000  -126.017624
	  105 D(10,13,14,22)  =     -5.642281    -0.000013    -0.640769    -6.283050
	  106 D(10,13,14,23)  =    115.210970    -0.000017    -0.676414   114.534556
	  107 D(11,10,9,17)   =    179.444699    -0.000001     0.012448   179.457147
	  108 *D(11,10,13,14) =   -173.656256    -0.000000    -0.000000  -173.656256
	  109 D(11,12,1,19)   =      0.857946    -0.000004    -0.418879     0.439067
	  110 D(12,1,2,15)    =   -179.673183    -0.000000     0.118971  -179.554212
	  111 D(12,7,6,16)    =    179.653967    -0.000000    -0.200045   179.453922
	  112 D(12,7,8,18)    =   -179.446234    -0.000002    -0.239763  -179.685996
	  113 D(12,11,10,13)  =    179.371799    -0.000002     0.050054   179.421854
	  114 D(13,10,9,17)   =      1.348043     0.000001     0.037470     1.385513
	  115 D(13,10,11,20)  =     -0.799182    -0.000001     0.142435    -0.656746
	  116 D(15,2,1,19)    =      0.000000    -0.000000     0.074537     0.074537
	  117 D(17,9,8,18)    =     -0.039123    -0.000002    -0.148125    -0.187248
	 ---------------------------------------------------------------------------
	Successfully symmetrized geometry.

  ==> Convergence Check <==

  Measures of convergence in internal coordinates in au.
  Criteria marked as inactive (o), active & met (*), and active & unmet ( ).
  --------------------------------------------------------------------------------------------- ~
   Step     Total Energy     Delta E     MAX Force     RMS Force      MAX Disp      RMS Disp    ~
  --------------------------------------------------------------------------------------------- ~
    Convergence Criteria             o    2.50e-03 *    1.70e-03 *    1.00e-02 *    6.70e-03 *  ~
  --------------------------------------------------------------------------------------------- ~
      1   -1188.11149911   -1.19e+03 o    2.81e-02      6.72e-03      7.39e-02      1.76e-02    ~
  ---------------------------------------------------------------------------------------------

	Writing optimization data to binary file.
	Structure for next step:
	Cartesian Geometry (in Angstrom)
	    N    -0.9990609819  -1.4876887560   0.1196973890
	    C    -2.2949297120  -1.1404362993   0.3941776057
	    C    -2.5795489260   0.3727994707   0.5031004061
	    F    -3.5010895547   0.6792169143  -0.4466403788
	    F    -3.1413376471   0.5944224806   1.7186359609
	    C    -1.3875280898   1.3465885512   0.3402878880
	    C    -0.0760056405   0.7585041727   0.0489806057
	    C     1.0399849760   1.5806796930  -0.1218151832
	    C     2.2862819405   1.0521304994  -0.3976627718
	    C     2.4412574795  -0.3353610722  -0.5168672824
	    C     1.3357873472  -1.1704572722  -0.3335415299
	    C     0.0882697799  -0.6309817387  -0.0589677628
	    S     3.9513826122  -1.1799223734  -0.8414982132
	    C     5.2326614978   0.1151299832  -0.8437617940
	    O    -3.1756668844  -1.9608440194   0.5413119514
	    O    -1.5958412739   2.5349619310   0.4557458390
	    H     3.1237040983   1.7294686250  -0.5247865813
	    H     0.9044494292   2.6532709231  -0.0314518158
	    H    -0.8498147727  -2.4877883898   0.0510309233
	    H     1.4521607265  -2.2493838507  -0.4074609294
	    H     5.7844418111   0.0490910776  -1.7841097634
	    H     4.8036496562   1.1173663526  -0.7609885739
	    H     5.9119877184  -0.0513689584  -0.0040091857
			--------------------------
			 OPTKING Finished Execution 
			--------------------------

    Structure for next step:
    Molecular point group: c1
    Full point group: C1

    Geometry (in Angstrom), charge = 0, multiplicity = 1:

    N           -1.016176197006    -1.483462974136     0.121492627261
    C           -2.312044932124    -1.136210516028     0.395972845031
    C           -2.596664147240     0.377025259867     0.504895645931
    F           -3.518204779624     0.683442704732    -0.444845142720
    F           -3.158452870553     0.598648270656     1.720431205462
    C           -1.404643306433     1.350814344189     0.342083127191
    C           -0.093120851979     0.762729963406     0.050775843686
    C            1.022869768904     1.584905486968    -0.120019945875
    C            2.269166738316     1.056356291292    -0.395867535534
    C            2.424142277969    -0.331135285801    -0.515072046628
    C            1.318672141326    -1.166231489116    -0.331746293356
    C            0.071154569063    -0.626755953516    -0.057172525234
    S            3.934267416578    -1.175696590313    -0.839702978728
    C            5.215546307281     0.119355771338    -0.841966559506
    O           -3.192782107999    -1.956618239382     0.543107191375
    O           -1.612956491288     2.539187728659     0.457541078589
    H            3.106588899457     1.733694419471    -0.522991345523
    H            0.887334221647     2.657496721223    -0.029656578096
    H           -0.866929987182    -2.483562611851     0.052826161297
    H            1.435045521087    -2.245158071807    -0.405665693149
    H            5.767326622699     0.053316865464    -1.782314532586
    H            4.786534463989     1.121592144701    -0.759193339065
    H            5.894872530492    -0.047143170914    -0.002213947916

gradient() will perform analytic gradient computation.

*** tstart() called on cpu-spot-dy-c5n2xlarge-1
*** at Tue Jun 22 05:42:12 2021

   => Loading Basis Set <=

    Name: 6-31+G*
    Role: ORBITAL
    Keyword: BASIS
    atoms 1             entry N          line   138 file /fsx/users/francis/anaconda3/envs/poltype-dev/share/psi4/basis/6-31pgs.gbs 
    atoms 2-3, 6-12, 14 entry C          line   119 file /fsx/users/francis/anaconda3/envs/poltype-dev/share/psi4/basis/6-31pgs.gbs 
    atoms 4-5           entry F          line   176 file /fsx/users/francis/anaconda3/envs/poltype-dev/share/psi4/basis/6-31pgs.gbs 
    atoms 13            entry S          line   344 file /fsx/users/francis/anaconda3/envs/poltype-dev/share/psi4/basis/6-31pgs.gbs 
    atoms 15-16         entry O          line   157 file /fsx/users/francis/anaconda3/envs/poltype-dev/share/psi4/basis/6-31pgs.gbs 
    atoms 17-23         entry H          line    46 file /fsx/users/francis/anaconda3/envs/poltype-dev/share/psi4/basis/6-31pgs.gbs 


         ---------------------------------------------------------
                                   SCF
               by Justin Turney, Rob Parrish, Andy Simmonett
                          and Daniel G. A. Smith
                              RKS Reference
                        8 Threads,  15258 MiB Core
         ---------------------------------------------------------

  ==> Geometry <==

    Molecular point group: c1
    Full point group: C1

    Geometry (in Angstrom), charge = 0, multiplicity = 1:

       Center              X                  Y                   Z               Mass       
    ------------   -----------------  -----------------  -----------------  -----------------
         N           -1.016176197006    -1.483462974136     0.121492627261    14.003074004430
         C           -2.312044932124    -1.136210516028     0.395972845031    12.000000000000
         C           -2.596664147240     0.377025259867     0.504895645931    12.000000000000
         F           -3.518204779624     0.683442704732    -0.444845142720    18.998403162730
         F           -3.158452870553     0.598648270656     1.720431205462    18.998403162730
         C           -1.404643306433     1.350814344189     0.342083127191    12.000000000000
         C           -0.093120851979     0.762729963406     0.050775843686    12.000000000000
         C            1.022869768904     1.584905486968    -0.120019945875    12.000000000000
         C            2.269166738316     1.056356291292    -0.395867535534    12.000000000000
         C            2.424142277969    -0.331135285801    -0.515072046628    12.000000000000
         C            1.318672141326    -1.166231489116    -0.331746293356    12.000000000000
         C            0.071154569063    -0.626755953516    -0.057172525234    12.000000000000
         S            3.934267416578    -1.175696590313    -0.839702978728    31.972071174400
         C            5.215546307281     0.119355771338    -0.841966559506    12.000000000000
         O           -3.192782107999    -1.956618239382     0.543107191375    15.994914619570
         O           -1.612956491288     2.539187728659     0.457541078589    15.994914619570
         H            3.106588899457     1.733694419471    -0.522991345523     1.007825032230
         H            0.887334221647     2.657496721223    -0.029656578096     1.007825032230
         H           -0.866929987182    -2.483562611851     0.052826161297     1.007825032230
         H            1.435045521087    -2.245158071807    -0.405665693149     1.007825032230
         H            5.767326622699     0.053316865464    -1.782314532586     1.007825032230
         H            4.786534463989     1.121592144701    -0.759193339065     1.007825032230
         H            5.894872530492    -0.047143170914    -0.002213947916     1.007825032230

  Running in c1 symmetry.

  Rotational constants: A =      0.03961  B =      0.00829  C =      0.00713 [cm^-1]
  Rotational constants: A =   1187.41250  B =    248.54451  C =    213.84380 [MHz]
  Nuclear repulsion = 1188.162566495175952

  Charge       = 0
  Multiplicity = 1
  Electrons    = 124
  Nalpha       = 62
  Nbeta        = 62

  ==> Algorithm <==

  SCF Algorithm Type is DF.
  DIIS enabled.
  MOM disabled.
  Fractional occupation disabled.
  Guess Type is READ.
  Energy threshold   = 1.00e-08
  Density threshold  = 1.00e-08
  Integral threshold = 0.00e+00

  ==> Primary Basis <==

  Basis Set: 6-31+G*
    Blend: 6-31+G*
    Number of shells: 144
    Number of basis function: 322
    Number of Cartesian functions: 322
    Spherical Harmonics?: false
    Max angular momentum: 2

  ==> DFT Potential <==

   => Composite Functional: WB97X-D <= 

    wB97X-D Hyb-GGA Exchange-Correlation Functional

    J.-D. Chai and M. Head-Gordon, Phys. Chem. Chem. Phys. 10, 6615 (2008)

    Deriv               =              1
    GGA                 =           TRUE
    Meta                =          FALSE

    Exchange Hybrid     =           TRUE
    MP2 Hybrid          =          FALSE

   => Exchange-Correlation Functionals <=

    1.0000   wB97D range-separated functional

   => Exact (HF) Exchange <=

    0.7780            HF,LR [omega = 0.2000]
    0.2220               HF 

   => Molecular Quadrature <=

    Radial Scheme          =       TREUTLER
    Pruning Scheme         =           FLAT
    Nuclear Scheme         =       TREUTLER

    BS radius alpha        =              1
    Pruning alpha          =              1
    Radial Points          =             75
    Spherical Points       =            302
    Total Points           =         520855
    Total Blocks           =           3866
    Max Points             =            256
    Max Functions          =            288

   => WB97X-D: Empirical Dispersion <=

    Chai and Head-Gordon Dispersion Correction
    Chai, J.-D.; Head-Gordon, M. (2010), J. Chem. Phys., 132: 6615-6620

        s6 =       1.000000

   => Loading Basis Set <=

    Name: (6-31+G* AUX)
    Role: JKFIT
    Keyword: DF_BASIS_SCF
    atoms 1             entry N          line   252 file /fsx/users/francis/anaconda3/envs/poltype-dev/share/psi4/basis/heavy-aug-cc-pvdz-jkfit.gbs 
    atoms 2-3, 6-12, 14 entry C          line   194 file /fsx/users/francis/anaconda3/envs/poltype-dev/share/psi4/basis/heavy-aug-cc-pvdz-jkfit.gbs 
    atoms 4-5           entry F          line   368 file /fsx/users/francis/anaconda3/envs/poltype-dev/share/psi4/basis/heavy-aug-cc-pvdz-jkfit.gbs 
    atoms 13            entry S          line   730 file /fsx/users/francis/anaconda3/envs/poltype-dev/share/psi4/basis/heavy-aug-cc-pvdz-jkfit.gbs 
    atoms 15-16         entry O          line   310 file /fsx/users/francis/anaconda3/envs/poltype-dev/share/psi4/basis/heavy-aug-cc-pvdz-jkfit.gbs 
    atoms 17-23         entry H          line   116 file /fsx/users/francis/anaconda3/envs/poltype-dev/share/psi4/basis/heavy-aug-cc-pvdz-jkfit.gbs 

   => Loading Basis Set <=

    Name: 6-31+G*
    Role: ORBITAL
    Keyword: BASIS
    atoms 1             entry N          line   138 file /fsx/users/francis/anaconda3/envs/poltype-dev/share/psi4/basis/6-31pgs.gbs 
    atoms 2-3, 6-12, 14 entry C          line   119 file /fsx/users/francis/anaconda3/envs/poltype-dev/share/psi4/basis/6-31pgs.gbs 
    atoms 4-5           entry F          line   176 file /fsx/users/francis/anaconda3/envs/poltype-dev/share/psi4/basis/6-31pgs.gbs 
    atoms 13            entry S          line   344 file /fsx/users/francis/anaconda3/envs/poltype-dev/share/psi4/basis/6-31pgs.gbs 
    atoms 15-16         entry O          line   157 file /fsx/users/francis/anaconda3/envs/poltype-dev/share/psi4/basis/6-31pgs.gbs 
    atoms 17-23         entry H          line    46 file /fsx/users/francis/anaconda3/envs/poltype-dev/share/psi4/basis/6-31pgs.gbs 

  Reading orbitals from file 180, no projection.

  ==> Pre-Iterations <==

   -------------------------------------------------------
    Irrep   Nso     Nmo     Nalpha   Nbeta   Ndocc  Nsocc
   -------------------------------------------------------
     A        322     322       0       0       0       0
   -------------------------------------------------------
    Total     322     322      62      62      62       0
   -------------------------------------------------------

  ==> Integral Setup <==

  ==> DiskDFJK: Density-Fitted J/K Matrices <==

    J tasked:                  Yes
    K tasked:                  Yes
    wK tasked:                 Yes
    Omega:               2.000E-01
    OpenMP threads:              8
    Integrals threads:           8
    Memory [MiB]:             8438
    Algorithm:                Core
    Integral Cache:           NONE
    Schwarz Cutoff:          1E-12
    Fitting Condition:       1E-10

   => Auxiliary Basis Set <=

  Basis Set: (6-31+G* AUX)
    Blend: HEAVY-AUG-CC-PVDZ-JKFIT
    Number of shells: 523
    Number of basis function: 1840
    Number of Cartesian functions: 1840
    Spherical Harmonics?: false
    Max angular momentum: 3

  Cached 100.0% of DFT collocation blocks in 2.935 [GiB].

  Minimum eigenvalue in the overlap matrix is 4.4020968447E-07.
  Using Symmetric Orthogonalization.

  SCF Guess: Orbitals guess was supplied from a previous computation.

  ==> Iterations <==

                           Total Energy        Delta E     RMS |[F,P]|

   @DF-RKS iter   0: -1188.30274401086535   -1.18830e+03   1.12588e-03 
   @DF-RKS iter   1: -1188.11408127203322    1.88663e-01   2.21982e-04 DIIS
   @DF-RKS iter   2: -1188.11406634413697    1.49279e-05   2.60497e-04 DIIS
   @DF-RKS iter   3: -1188.11683463454983   -2.76829e-03   5.45502e-05 DIIS
   @DF-RKS iter   4: -1188.11694106701157   -1.06432e-04   1.43398e-05 DIIS
   @DF-RKS iter   5: -1188.11695071638792   -9.64938e-06   6.26607e-06 DIIS
   @DF-RKS iter   6: -1188.11695267754294   -1.96116e-06   1.49192e-06 DIIS
   @DF-RKS iter   7: -1188.11695284264215   -1.65099e-07   5.14022e-07 DIIS
   @DF-RKS iter   8: -1188.11695287782959   -3.51874e-08   2.84455e-07 DIIS
   @DF-RKS iter   9: -1188.11695288671353   -8.88394e-09   1.16171e-07 DIIS
   @DF-RKS iter  10: -1188.11695288866508   -1.95155e-09   5.76439e-08 DIIS
   @DF-RKS iter  11: -1188.11695288901956   -3.54476e-10   1.82925e-08 DIIS
   @DF-RKS iter  12: -1188.11695288905571   -3.61524e-11   9.00359e-09 DIIS
  Energy and wave function converged.


  ==> Post-Iterations <==

    Orbital Energies [Eh]
    ---------------------

    Doubly Occupied:                                                      

       1A    -89.084866     2A    -24.870681     3A    -24.869910  
       4A    -19.300872     5A    -19.291582     6A    -14.540584  
       7A    -10.499152     8A    -10.452536     9A    -10.426997  
      10A    -10.405037    11A    -10.388626    12A    -10.356310  
      13A    -10.350338    14A    -10.346861    15A    -10.345826  
      16A    -10.341444    17A     -8.102613    18A     -6.053294  
      19A     -6.048799    20A     -6.042792    21A     -1.388954  
      22A     -1.327829    23A     -1.191326    24A     -1.180494  
      25A     -1.098934    26A     -1.007460    27A     -0.944445  
      28A     -0.907111    29A     -0.889425    30A     -0.869335  
      31A     -0.801268    32A     -0.766062    33A     -0.753893  
      34A     -0.746035    35A     -0.697265    36A     -0.683389  
      37A     -0.668621    38A     -0.646547    39A     -0.631035  
      40A     -0.593131    41A     -0.588664    42A     -0.567908  
      43A     -0.562410    44A     -0.558146    45A     -0.554481  
      46A     -0.553644    47A     -0.547942    48A     -0.533981  
      49A     -0.516749    50A     -0.515538    51A     -0.507106  
      52A     -0.498985    53A     -0.490166    54A     -0.487930  
      55A     -0.475192    56A     -0.443019    57A     -0.433683  
      58A     -0.398336    59A     -0.394127    60A     -0.363744  
      61A     -0.340596    62A     -0.317597  

    Virtual:                                                              

      63A     -0.041775    64A      0.015084    65A      0.039548  
      66A      0.046062    67A      0.057593    68A      0.066552  
      69A      0.068832    70A      0.073652    71A      0.081108  
      72A      0.084129    73A      0.094352    74A      0.098694  
      75A      0.105298    76A      0.111671    77A      0.114856  
      78A      0.117175    79A      0.118624    80A      0.133783  
      81A      0.138975    82A      0.141088    83A      0.144912  
      84A      0.151975    85A      0.154465    86A      0.166958  
      87A      0.172041    88A      0.175318    89A      0.178094  
      90A      0.180893    91A      0.184762    92A      0.193904  
      93A      0.196508    94A      0.201332    95A      0.205266  
      96A      0.207980    97A      0.214080    98A      0.221149  
      99A      0.224584   100A      0.230475   101A      0.236740  
     102A      0.237708   103A      0.245172   104A      0.246366  
     105A      0.250774   106A      0.251227   107A      0.263243  
     108A      0.264713   109A      0.276178   110A      0.278804  
     111A      0.280132   112A      0.289102   113A      0.290888  
     114A      0.295427   115A      0.299868   116A      0.309342  
     117A      0.314379   118A      0.316622   119A      0.328789  
     120A      0.329830   121A      0.334513   122A      0.339954  
     123A      0.342439   124A      0.344446   125A      0.361206  
     126A      0.363508   127A      0.371860   128A      0.380766  
     129A      0.387801   130A      0.388994   131A      0.394464  
     132A      0.401013   133A      0.405691   134A      0.414870  
     135A      0.415738   136A      0.424363   137A      0.430333  
     138A      0.443115   139A      0.447623   140A      0.456424  
     141A      0.460935   142A      0.474827   143A      0.478123  
     144A      0.488846   145A      0.510471   146A      0.519314  
     147A      0.532656   148A      0.534484   149A      0.554141  
     150A      0.559460   151A      0.578859   152A      0.581629  
     153A      0.594527   154A      0.612609   155A      0.617106  
     156A      0.636765   157A      0.654957   158A      0.672505  
     159A      0.697402   160A      0.714670   161A      0.726162  
     162A      0.745452   163A      0.754237   164A      0.763414  
     165A      0.769905   166A      0.778111   167A      0.788517  
     168A      0.801520   169A      0.811672   170A      0.822846  
     171A      0.834155   172A      0.857542   173A      0.867317  
     174A      0.868772   175A      0.878898   176A      0.890469  
     177A      0.898142   178A      0.920406   179A      0.926422  
     180A      0.933947   181A      0.950938   182A      0.965395  
     183A      0.979191   184A      0.984406   185A      1.023438  
     186A      1.025352   187A      1.052355   188A      1.058340  
     189A      1.061355   190A      1.090341   191A      1.095492  
     192A      1.112829   193A      1.139024   194A      1.155309  
     195A      1.165127   196A      1.175483   197A      1.206089  
     198A      1.210171   199A      1.211244   200A      1.225179  
     201A      1.241204   202A      1.261515   203A      1.275252  
     204A      1.282536   205A      1.297929   206A      1.329654  
     207A      1.332852   208A      1.336272   209A      1.357533  
     210A      1.387658   211A      1.405585   212A      1.412796  
     213A      1.416240   214A      1.429554   215A      1.441832  
     216A      1.450942   217A      1.458374   218A      1.466972  
     219A      1.478326   220A      1.489171   221A      1.513171  
     222A      1.519099   223A      1.526741   224A      1.537680  
     225A      1.554104   226A      1.602572   227A      1.629178  
     228A      1.661575   229A      1.675892   230A      1.685517  
     231A      1.717770   232A      1.750074   233A      1.758142  
     234A      1.761245   235A      1.763344   236A      1.768019  
     237A      1.783856   238A      1.790043   239A      1.792576  
     240A      1.831018   241A      1.841836   242A      1.880178  
     243A      1.895052   244A      1.900081   245A      1.916929  
     246A      1.923606   247A      1.926685   248A      1.966262  
     249A      1.971622   250A      1.976248   251A      1.983673  
     252A      2.020477   253A      2.046544   254A      2.057570  
     255A      2.065289   256A      2.070478   257A      2.094195  
     258A      2.119259   259A      2.122234   260A      2.143112  
     261A      2.177635   262A      2.180281   263A      2.188647  
     264A      2.217139   265A      2.227260   266A      2.237775  
     267A      2.260448   268A      2.261672   269A      2.278295  
     270A      2.285969   271A      2.315947   272A      2.325393  
     273A      2.329164   274A      2.358690   275A      2.363766  
     276A      2.387251   277A      2.395092   278A      2.433794  
     279A      2.480995   280A      2.490741   281A      2.532229  
     282A      2.560046   283A      2.606818   284A      2.655688  
     285A      2.692537   286A      2.701913   287A      2.737220  
     288A      2.763013   289A      2.766432   290A      2.790816  
     291A      2.796448   292A      2.843474   293A      2.849075  
     294A      2.885329   295A      2.936174   296A      2.976520  
     297A      2.989297   298A      3.058670   299A      3.156646  
     300A      3.190729   301A      3.227468   302A      3.259389  
     303A      3.373113   304A      3.428333   305A      3.517883  
     306A      3.527128   307A      4.043687   308A      4.303655  
     309A      4.325085   310A      4.359499   311A      4.367197  
     312A      4.395936   313A      4.431782   314A      4.489062  
     315A      4.494856   316A      4.533669   317A      4.603765  
     318A      4.823493   319A      4.885085   320A      5.167676  
     321A      5.719296   322A      7.263085  

    Final Occupation by Irrep:
              A 
    DOCC [    62 ]

  @DF-RKS Final Energy: -1188.11695288905571

   => Energetics <=

    Nuclear Repulsion Energy =           1188.1625664951759518
    One-Electron Energy =               -3990.2946934620958928
    Two-Electron Energy =                1703.5904705105001540
    DFT Exchange-Correlation Energy =     -89.5619161881526509
    Empirical Dispersion Energy =          -0.0133802444835753
    VV10 Nonlocal Energy =                  0.0000000000000000
    Total Energy =                      -1188.1169528890559377

Computation Completed


Properties will be evaluated at   0.000000,   0.000000,   0.000000 [a0]

Properties computed using the SCF density matrix

  Nuclear Dipole Moment: [e a0]
     X:    26.0791      Y:    -0.4926      Z:    -4.4546

  Electronic Dipole Moment: [e a0]
     X:   -22.8471      Y:     0.0883      Z:     3.8763

  Dipole Moment: [e a0]
     X:     3.2320      Y:    -0.4042      Z:    -0.5782     Total:     3.3081

  Dipole Moment: [D]
     X:     8.2149      Y:    -1.0275      Z:    -1.4697     Total:     8.4083


*** tstop() called on cpu-spot-dy-c5n2xlarge-1 at Tue Jun 22 05:43:12 2021
Module time:
	user time   =     446.89 seconds =       7.45 minutes
	system time =       6.52 seconds =       0.11 minutes
	total time  =         60 seconds =       1.00 minutes
Total time:
	user time   =    1165.94 seconds =      19.43 minutes
	system time =      20.65 seconds =       0.34 minutes
	total time  =        160 seconds =       2.67 minutes

*** tstart() called on cpu-spot-dy-c5n2xlarge-1
*** at Tue Jun 22 05:43:12 2021


         ------------------------------------------------------------
                                   SCF GRAD                          
                          Rob Parrish, Justin Turney,                
                       Andy Simmonett, and Alex Sokolov              
         ------------------------------------------------------------

  ==> Geometry <==

    Molecular point group: c1
    Full point group: C1

    Geometry (in Angstrom), charge = 0, multiplicity = 1:

       Center              X                  Y                   Z               Mass       
    ------------   -----------------  -----------------  -----------------  -----------------
         N           -1.016176197006    -1.483462974136     0.121492627261    14.003074004430
         C           -2.312044932124    -1.136210516028     0.395972845031    12.000000000000
         C           -2.596664147240     0.377025259867     0.504895645931    12.000000000000
         F           -3.518204779624     0.683442704732    -0.444845142720    18.998403162730
         F           -3.158452870553     0.598648270656     1.720431205462    18.998403162730
         C           -1.404643306433     1.350814344189     0.342083127191    12.000000000000
         C           -0.093120851979     0.762729963406     0.050775843686    12.000000000000
         C            1.022869768904     1.584905486968    -0.120019945875    12.000000000000
         C            2.269166738316     1.056356291292    -0.395867535534    12.000000000000
         C            2.424142277969    -0.331135285801    -0.515072046628    12.000000000000
         C            1.318672141326    -1.166231489116    -0.331746293356    12.000000000000
         C            0.071154569063    -0.626755953516    -0.057172525234    12.000000000000
         S            3.934267416578    -1.175696590313    -0.839702978728    31.972071174400
         C            5.215546307281     0.119355771338    -0.841966559506    12.000000000000
         O           -3.192782107999    -1.956618239382     0.543107191375    15.994914619570
         O           -1.612956491288     2.539187728659     0.457541078589    15.994914619570
         H            3.106588899457     1.733694419471    -0.522991345523     1.007825032230
         H            0.887334221647     2.657496721223    -0.029656578096     1.007825032230
         H           -0.866929987182    -2.483562611851     0.052826161297     1.007825032230
         H            1.435045521087    -2.245158071807    -0.405665693149     1.007825032230
         H            5.767326622699     0.053316865464    -1.782314532586     1.007825032230
         H            4.786534463989     1.121592144701    -0.759193339065     1.007825032230
         H            5.894872530492    -0.047143170914    -0.002213947916     1.007825032230

  Nuclear repulsion = 1188.162566495175952

  ==> Basis Set <==

  Basis Set: 6-31+G*
    Blend: 6-31+G*
    Number of shells: 144
    Number of basis function: 322
    Number of Cartesian functions: 322
    Spherical Harmonics?: false
    Max angular momentum: 2

  ==> DFJKGrad: Density-Fitted SCF Gradients <==

    Gradient:                    1
    J tasked:                  Yes
    K tasked:                  Yes
    wK tasked:                 Yes
    Omega:               2.000E-01
    OpenMP threads:              8
    Integrals threads:           8
    Memory [MiB]:            11444
    Schwarz Cutoff:          0E+00
    Fitting Condition:       1E-10

   => Auxiliary Basis Set <=

  Basis Set: (6-31+G* AUX)
    Blend: HEAVY-AUG-CC-PVDZ-JKFIT
    Number of shells: 523
    Number of basis function: 1840
    Number of Cartesian functions: 1840
    Spherical Harmonics?: false
    Max angular momentum: 3

  ==> DFT Potential <==

   => Composite Functional: WB97X-D <= 

    wB97X-D Hyb-GGA Exchange-Correlation Functional

    J.-D. Chai and M. Head-Gordon, Phys. Chem. Chem. Phys. 10, 6615 (2008)

    Deriv               =              1
    GGA                 =           TRUE
    Meta                =          FALSE

    Exchange Hybrid     =           TRUE
    MP2 Hybrid          =          FALSE

   => Exchange-Correlation Functionals <=

    1.0000   wB97D range-separated functional

   => Exact (HF) Exchange <=

    0.7780            HF,LR [omega = 0.2000]
    0.2220               HF 

   => Molecular Quadrature <=

    Radial Scheme          =       TREUTLER
    Pruning Scheme         =           FLAT
    Nuclear Scheme         =       TREUTLER

    BS radius alpha        =              1
    Pruning alpha          =              1
    Radial Points          =             75
    Spherical Points       =            302
    Total Points           =         520855
    Total Blocks           =           3866
    Max Points             =            256
    Max Functions          =            288


  -Total Gradient:
     Atom            X                  Y                   Z
    ------   -----------------  -----------------  -----------------
       1        0.002219947829     0.002872030810    -0.000142053727
       2        0.002829051307     0.004320558660    -0.000574422978
       3        0.004939021826    -0.000915483769    -0.001746332652
       4       -0.001255236317     0.000426499662    -0.000268491982
       5       -0.001299459475     0.000526385192     0.001594186061
       6       -0.002756452560    -0.002756898186     0.000275230560
       7        0.002071660163    -0.001288178694    -0.000431579898
       8       -0.000102806171    -0.000097772977     0.000179952792
       9       -0.000854284431    -0.002843466518     0.001324465309
      10       -0.001129406475     0.001448873786    -0.004200345024
      11        0.000102267096     0.001343235847     0.001664247142
      12        0.003116466122    -0.000188742636    -0.000620936744
      13       -0.002477166407    -0.003137732832     0.001470129738
      14       -0.000758428974     0.000631092387     0.000406465968
      15       -0.003646767641    -0.004070466123     0.000602673922
      16        0.000303441305     0.001241502027     0.000001166684
      17        0.002923453648     0.000522856508    -0.000339631351
      18        0.000308046101    -0.000513435940    -0.000046945039
      19       -0.000933023169    -0.000460569170     0.000291306074
      20       -0.000141310686    -0.000323536608    -0.000121732240
      21       -0.000132577017    -0.000327269752    -0.000739447583
      22       -0.002977620038     0.003922786689     0.000752731767
      23        0.000624850347    -0.000613448349     0.000638314477


*** tstop() called on cpu-spot-dy-c5n2xlarge-1 at Tue Jun 22 05:43:35 2021
Module time:
	user time   =     146.98 seconds =       2.45 minutes
	system time =       3.69 seconds =       0.06 minutes
[...]
	 ---------------------------------------------------------------------------
	   Coordinate                Previous        Force       Change         New 
	   ----------                --------       ------       ------       ------
	    1 R(1,2)          =      1.370015    -0.000746    -0.000237     1.369777
	    2 R(1,12)         =      1.397547    -0.000401    -0.000152     1.397395
	    3 R(1,19)         =      1.012675     0.001962     0.000352     1.013027
	    4 R(2,3)          =      1.549141    -0.001588    -0.000750     1.548391
	    5 R(2,15)         =      1.209354    -0.002775    -0.000328     1.209027
	    6 R(3,4)          =      1.358901     0.004272     0.000765     1.359666
	    7 R(3,5)          =      1.352048    -0.005958    -0.001081     1.350967
	    8 R(3,6)          =      1.554626    -0.001824    -0.000851     1.553775
	    9 R(6,7)          =      1.465040     0.000312    -0.000083     1.464957
	   10 R(6,16)         =      1.211488    -0.003644    -0.000402     1.211086
	   11 R(7,8)          =      1.398407     0.000743     0.000069     1.398476
	   12 R(7,12)         =      1.405215    -0.000646    -0.000191     1.405024
	   13 R(8,9)          =      1.382719    -0.000277    -0.000149     1.382570
	   14 R(8,18)         =      1.085937    -0.000633    -0.000173     1.085764
	   15 R(9,10)         =      1.404219    -0.001854    -0.000414     1.403805
	   16 R(9,17)         =      1.082911    -0.001729    -0.000515     1.082395
	   17 R(10,11)        =      1.399563     0.001371     0.000239     1.399802
	   18 R(10,13)        =      1.765271     0.000151     0.000073     1.765344
	   19 R(11,12)        =      1.390314     0.000540     0.000083     1.390397
	   20 R(11,20)        =      1.087589    -0.000709    -0.000163     1.087426
	   21 R(13,14)        =      1.816238     0.002030     0.000633     1.816872
	   22 R(14,21)        =      1.091628    -0.000959    -0.000252     1.091376
	   23 R(14,22)        =      1.089809    -0.003319    -0.000860     1.088949
	   24 R(14,23)        =      1.091546    -0.000971    -0.000250     1.091296
	   25 B(1,2,3)        =    115.866853     0.000003     0.029521   115.896374
	   26 B(1,2,15)       =    122.925372    -0.000004    -0.025115   122.900256
	   27 B(1,12,7)       =    120.917150    -0.000008    -0.041373   120.875777
	   28 B(1,12,11)      =    119.018076     0.000002     0.013097   119.031174
	   29 B(2,1,12)       =    126.991682     0.000003    -0.000671   126.991011
	   30 B(2,1,19)       =    114.593378    -0.000003    -0.018285   114.575093
	   31 B(2,3,4)        =    106.827943    -0.000004     0.001574   106.829517
	   32 B(2,3,5)        =    107.654102     0.000006     0.014976   107.669077
	   33 B(2,3,6)        =    117.865487    -0.000000    -0.024965   117.840522
	   34 B(3,2,15)       =    121.201216     0.000001    -0.007954   121.193262
	   35 B(3,6,7)        =    116.862146     0.000000     0.020177   116.882323
	   36 B(3,6,16)       =    118.335688     0.000005     0.001165   118.336853
	   37 B(4,3,5)        =    108.246386     0.000004     0.029973   108.276359
	   38 B(4,3,6)        =    107.403130    -0.000010    -0.041653   107.361478
	   39 B(5,3,6)        =    108.513441     0.000005     0.024382   108.537823
	   40 B(6,7,8)        =    120.212216     0.000001     0.006873   120.219090
	   41 B(6,7,12)       =    121.111529     0.000003     0.006757   121.118286
	   42 B(7,6,16)       =    124.793850    -0.000005    -0.022548   124.771302
	   43 B(7,8,9)        =    121.627613    -0.000002    -0.012084   121.615529
	   44 B(7,8,18)       =    117.849756     0.000006     0.047599   117.897355
	   45 B(7,12,11)      =    120.060316     0.000006     0.028294   120.088610
	   46 B(8,7,12)       =    118.673227    -0.000004    -0.013856   118.659371
	   47 B(8,9,10)       =    119.557478     0.000007     0.032164   119.589642
	   48 B(8,9,17)       =    118.786190    -0.000009    -0.046486   118.739704
	   49 B(9,8,18)       =    120.522589    -0.000004    -0.035476   120.487112
	   50 B(9,10,11)      =    119.362258     0.000001    -0.005997   119.356261
	   51 B(9,10,13)      =    126.198443     0.000008     0.028007   126.226450
	   52 B(10,9,17)      =    121.653490     0.000002     0.014264   121.667754
	   53 B(10,11,12)     =    120.703909    -0.000008    -0.028633   120.675276
	   54 B(10,11,20)     =    119.640905     0.000007     0.033829   119.674735
	   55 B(10,13,14)     =    106.780266     0.000003     0.041498   106.821765
	   56 B(11,10,13)     =    114.414255    -0.000008    -0.022004   114.392251
	   57 B(12,1,19)      =    118.410154    -0.000000     0.016142   118.426296
	   58 B(12,11,20)     =    119.655124     0.000001    -0.005233   119.649891
	   59 B(13,14,21)     =    108.471205    -0.000008    -0.030112   108.441093
	   60 B(13,14,22)     =    112.189602    -0.000008    -0.037650   112.151952
	   61 B(13,14,23)     =    109.547732    -0.000010    -0.049228   109.498505
	   62 B(21,14,22)     =    107.852617     0.000011     0.056696   107.909313
	   63 B(21,14,23)     =    109.981074     0.000012     0.062691   110.043766
	   64 B(22,14,23)     =    108.773033     0.000005     0.001505   108.774537
	   65 D(1,2,3,4)      =    114.342473    -0.000003    -0.212132   114.130341
	   66 D(1,2,3,5)      =   -129.583290    -0.000002    -0.169211  -129.752501
	   67 D(1,2,3,6)      =     -6.545678     0.000000    -0.141995    -6.687673
	   68 D(1,12,7,6)     =     -0.298241     0.000001     0.067110    -0.231131
	   69 D(1,12,7,8)     =    179.069920     0.000001     0.044026   179.113946
	   70 D(1,12,11,10)   =    179.930106    -0.000000    -0.031414   179.898692
	   71 D(1,12,11,20)   =      0.020786    -0.000000    -0.007730     0.013056
	   72 D(2,1,12,7)     =      0.958555    -0.000001    -0.150788     0.807766
	   73 D(2,1,12,11)    =   -179.809112    -0.000001    -0.149020  -179.958131
	   74 D(2,3,6,7)      =      7.142326    -0.000001     0.077520     7.219845
	   75 D(2,3,6,16)     =   -173.855983    -0.000001     0.007343  -173.848641
	   76 D(3,2,1,12)     =      2.628324     0.000001     0.184507     2.812831
	   77 D(3,2,1,19)     =   -178.186565    -0.000001    -0.027391  -178.213957
	   78 D(3,6,7,8)      =    176.842658     0.000000    -0.017931   176.824727
	   79 D(3,6,7,12)     =     -3.798834     0.000000    -0.041502    -3.840336
	   80 D(4,3,2,15)     =    -64.752171    -0.000002     0.006661   -64.745509
	   81 D(4,3,6,7)      =   -113.447982     0.000002     0.125577  -113.322405
	   82 D(4,3,6,16)     =     65.553709     0.000002     0.055400    65.609109
	   83 D(5,3,2,15)     =     51.322066    -0.000001     0.049583    51.371649
	   84 D(5,3,6,7)      =    129.744851     0.000002     0.099879   129.844730
	   85 D(5,3,6,16)     =    -51.253458     0.000001     0.029702   -51.223756
	   86 D(6,3,2,15)     =    174.359678     0.000002     0.076798   174.436476
	   87 D(6,7,8,9)      =    179.855537    -0.000001    -0.063408   179.792130
	   88 D(6,7,8,18)     =     -0.218975    -0.000000    -0.011057    -0.230031
	   89 D(6,7,12,11)    =   -179.522620     0.000001     0.065447  -179.457174
	   90 D(7,8,9,10)     =      0.175939     0.000000     0.026125     0.202065
	   91 D(7,8,9,17)     =    179.572941     0.000001     0.020118   179.593060
	   92 D(7,12,1,19)    =   -178.199019    -0.000000     0.068589  -178.130430
	   93 D(7,12,11,10)   =     -0.830831    -0.000000    -0.030206    -0.861037
	   94 D(7,12,11,20)   =    179.259850    -0.000000    -0.006522   179.253327
	   95 D(8,7,6,16)     =     -2.087336     0.000001     0.056962    -2.030374
	   96 D(8,7,12,11)    =     -0.154459     0.000001     0.042362    -0.112097
	   97 D(8,9,10,11)    =     -1.152601     0.000000    -0.012969    -1.165570
	   98 D(8,9,10,13)    =   -179.225011     0.000000    -0.012747  -179.237757
	   99 D(9,8,7,12)     =      0.481523    -0.000001    -0.040538     0.440985
	  100 D(9,10,11,12)   =      1.486395    -0.000000     0.014865     1.501259
	  101 D(9,10,11,20)   =   -178.604273    -0.000000    -0.008861  -178.613133
	  102 *D(9,10,13,14)  =      4.498834     0.000000    -0.000000     4.498834
	  103 D(10,9,8,18)    =   -179.747581    -0.000000    -0.027627  -179.775207
	  104 *D(10,13,14,21) =   -126.017624    -0.000000    -0.000000  -126.017624
	  105 D(10,13,14,22)  =     -6.984137     0.000001     0.027750    -6.956387
	  106 D(10,13,14,23)  =    113.922388    -0.000001    -0.028887   113.893501
	  107 D(11,10,9,17)   =    179.468239    -0.000000    -0.006409   179.461830
	  108 *D(11,10,13,14) =   -173.656256    -0.000000     0.000000  -173.656256
	  109 D(11,12,1,19)   =      1.033314    -0.000000     0.070358     1.103672
	  110 D(12,1,2,15)    =   -178.294263    -0.000001    -0.038223  -178.332486
	  111 D(12,7,6,16)    =    177.271172     0.000001     0.033391   177.304562
	  112 D(12,7,8,18)    =   -179.592989    -0.000000     0.011813  -179.581176
	  113 D(12,11,10,13)  =    179.778192    -0.000000     0.015577   179.793769
	  114 D(13,10,9,17)   =      1.395828    -0.000000    -0.006186     1.389642
	  115 D(13,10,11,20)  =     -0.312475    -0.000000    -0.008149    -0.320624
	  116 D(15,2,1,19)    =      0.890848    -0.000002    -0.250121     0.640726
	  117 D(17,9,8,18)    =     -0.350579    -0.000000    -0.033633    -0.384212
	  118 R(1,X)          =     -1.012426    -0.000988    -0.000507    -1.012933
	  119 R(1,Y)          =     -1.488635     0.001681     0.000598    -1.488037
	  120 R(1,Z)          =      0.151902     0.000280    -0.000870     0.151032
	  121 R(2,X)          =     -2.304741     0.000086     0.000340    -2.304401
	  122 R(2,Y)          =     -1.143746     0.001717     0.000832    -1.142914
	  123 R(2,Z)          =      0.448405     0.001474     0.001439     0.449844
	  124 R(3,X)          =     -2.599666    -0.000040    -0.000102    -2.599769
	  125 R(3,Y)          =      0.375435     0.000022     0.000009     0.375444
	  126 R(3,Z)          =      0.518743     0.002570     0.000832     0.519575
	  127 R(4,X)          =     -3.451585    -0.000686     0.000928    -3.450657
	  128 R(4,Y)          =      0.658441     0.000783    -0.000137     0.658304
	  129 R(4,Z)          =     -0.501431    -0.002370    -0.001085    -0.502517
	  130 R(5,X)          =     -3.240972     0.001472    -0.000657    -3.241629
	  131 R(5,Y)          =      0.615076    -0.000784     0.000190     0.615266
	  132 R(5,Z)          =      1.684647    -0.003343    -0.000764     1.683883
	  133 R(6,X)          =     -1.397700    -0.001896    -0.000657    -1.398358
	  134 R(6,Y)          =      1.354951    -0.000707    -0.000645     1.354307
	  135 R(6,Z)          =      0.406105     0.001583     0.000971     0.407076
	  136 R(7,X)          =     -0.094847    -0.001630    -0.000774    -0.095621
	  137 R(7,Y)          =      0.769408    -0.000313    -0.000129     0.769279
	  138 R(7,Z)          =      0.080447     0.000534    -0.000047     0.080400
	  139 R(8,X)          =      1.020577    -0.001238    -0.000937     1.019640
	  140 R(8,Y)          =      1.592649     0.000262     0.000144     1.592793
	  141 R(8,Z)          =     -0.102980    -0.000158    -0.000340    -0.103320
	  142 R(9,X)          =      2.264314    -0.001654    -0.001018     2.263295
	  143 R(9,Y)          =      1.071187    -0.000034     0.000146     1.071333
	  144 R(9,Z)          =     -0.408115    -0.000091    -0.000001    -0.408116
	  145 R(10,X)         =      2.419005    -0.000319    -0.000307     2.418698
	  146 R(10,Y)         =     -0.318003     0.001987     0.000644    -0.317360
	  147 R(10,Z)         =     -0.542477    -0.000073     0.000004    -0.542473
	  148 R(11,X)         =      1.314873    -0.000361    -0.000133     1.314739
	  149 R(11,Y)         =     -1.154111    -0.000261     0.000014    -1.154097
	  150 R(11,Z)         =     -0.341002    -0.000109     0.000002    -0.341000
	  151 R(12,X)         =      0.066276    -0.000585    -0.000250     0.066025
	  152 R(12,Y)         =     -0.621252     0.000497     0.000150    -0.621101
	  153 R(12,Z)         =     -0.040936     0.000113    -0.000343    -0.041279
	  154 R(13,X)         =      3.921817    -0.000546    -0.000189     3.921627
	  155 R(13,Y)         =     -1.169173     0.001227     0.000679    -1.168494
	  156 R(13,Z)         =     -0.907510     0.000036     0.000052    -0.907459
	  157 R(14,X)         =      5.238400     0.002188     0.001073     5.239472
	  158 R(14,Y)         =      0.081553     0.001283     0.000260     0.081814
	  159 R(14,Z)         =     -0.939362    -0.000463    -0.000314    -0.939676
	  160 R(15,X)         =     -3.177911     0.002412     0.000413    -3.177498
	  161 R(15,Y)         =     -1.960523     0.002997     0.000918    -1.959605
	  162 R(15,Z)         =      0.630026    -0.000067    -0.000010     0.630016
	  163 R(16,X)         =     -1.601951    -0.000485    -0.000524    -1.602475
	  164 R(16,Y)         =      2.537395    -0.004042    -0.000975     2.536420
	  165 R(16,Z)         =      0.572874     0.000480     0.000553     0.573427
	  166 R(17,X)         =      3.095185    -0.003956    -0.001917     3.093268
	  167 R(17,Y)         =      1.751609     0.000132     0.000478     1.752086
	  168 R(17,Z)         =     -0.547306     0.000431     0.000267    -0.547039
	  169 R(18,X)         =      0.882327     0.000148    -0.000161     0.882165
	  170 R(18,Y)         =      2.664764    -0.000184     0.000050     2.664813
	  171 R(18,Z)         =      0.000541    -0.000324    -0.000149     0.000392
	  172 R(19,X)         =     -0.847587    -0.001495    -0.000830    -0.848416
	  173 R(19,Y)         =     -2.485384    -0.000384     0.000116    -2.485269
	  174 R(19,Z)         =      0.082421     0.000100     0.000154     0.082576
	  175 R(20,X)         =      1.434679    -0.000653    -0.000329     1.434350
	  176 R(20,Y)         =     -2.232079     0.000414     0.000157    -2.231923
	  177 R(20,Z)         =     -0.421497     0.000005     0.000003    -0.421494
	  178 R(21,X)         =      5.765445     0.000430     0.000462     5.765907
	  179 R(21,Y)         =      0.004727    -0.000847    -0.000663     0.004064
	  180 R(21,Z)         =     -1.892238    -0.000165    -0.000288    -1.892527
	  181 R(22,X)         =      4.845751     0.002789     0.001415     4.847166
	  182 R(22,Y)         =      1.094704    -0.002084    -0.000558     1.094146
	  183 R(22,Z)         =     -0.855474    -0.000101    -0.000002    -0.855476
	  184 R(23,X)         =      5.931014    -0.000126     0.000085     5.931099
	  185 R(23,Y)         =     -0.096170    -0.000487    -0.000428    -0.096598
	  186 R(23,Z)         =     -0.114637    -0.000187     0.000036    -0.114601
	 ---------------------------------------------------------------------------
	Successfully symmetrized geometry.

  ==> Convergence Check <==

  Measures of convergence in internal coordinates in au.
  Criteria marked as inactive (o), active & met (*), and active & unmet ( ).
  --------------------------------------------------------------------------------------------- ~
   Step     Total Energy     Delta E     MAX Force     RMS Force      MAX Disp      RMS Disp    ~
  --------------------------------------------------------------------------------------------- ~
    Convergence Criteria             o    2.50e-03 *    1.70e-03 *    1.00e-02 *    6.70e-03 *  ~
  --------------------------------------------------------------------------------------------- ~
      1   -1188.11755403   -1.19e+03 o    7.23e-04 *    1.46e-04 *    4.37e-03 *    1.09e-03 *  ~
  ---------------------------------------------------------------------------------------------


  **** Optimization is complete! (in 1 steps) ****

  ==> Optimization Summary <==

  Measures of convergence in internal coordinates in au.
  --------------------------------------------------------------------------------------------------------------- ~
   Step         Total Energy             Delta E       MAX Force       RMS Force        MAX Disp        RMS Disp  ~
  --------------------------------------------------------------------------------------------------------------- ~
      1   -1188.117554026803  -1188.117554026803      0.00072319      0.00014615      0.00436544      0.00108844  ~
  --------------------------------------------------------------------------------------------------------------- ~

	Writing optimization data to binary file.
	Final energy is  -1188.1175540268030
	Final (previous) structure:
	Cartesian Geometry (in Angstrom)
	    N    -1.0124261795  -1.4886345652   0.1519016889
	    C    -2.3047410414  -1.1437458526   0.4484045641
	    C    -2.5996662248   0.3754350791   0.5187425656
	    F    -3.4515847834   0.6584409369  -0.5014314595
	    F    -3.2409716475   0.6150762030   1.6846471502
	    C    -1.3977000953   1.3549513325   0.4061051773
	    C    -0.0948466902   0.7694082248   0.0804469134
	    C     1.0205769443   1.5926490635  -0.1029801267
	    C     2.2643136336   1.0711868126  -0.4081149684
	    C     2.4190051372  -0.3180033448  -0.5424770666
	    C     1.3148727906  -1.1541107578  -0.3410021405
	    C     0.0662757776  -0.6212516883  -0.0409358688
	    S     3.9218166653  -1.1691729491  -0.9075102397
	    C     5.2383996947   0.0815534641  -0.9393623519
	    O    -3.1779114235  -1.9605228608   0.6300260799
	    O    -1.6019510856   2.5373947488   0.5728738260
	    H     3.0951849506   1.7516088089  -0.5473059525
	    H     0.8823268529   2.6647635673   0.0005413574
	    H    -0.8475866746  -2.4853843282   0.0824214884
	    H     1.4346791884  -2.2320794616  -0.4214972046
	    H     5.7654451071   0.0047269797  -1.8922383601
	    H     4.8457512078   1.0947040554  -0.8554740910
	    H     5.9310138983  -0.0961700433  -0.1146365328
	Saving final (previous) structure.
			--------------------------
			 OPTKING Finished Execution 
			--------------------------

    Final optimized geometry and variables:
    Molecular point group: c1
    Full point group: C1

    Geometry (in Angstrom), charge = 0, multiplicity = 1:

    N           -1.012426183451    -1.488634571099     0.151901689463
    C           -2.304741050444    -1.143745857123     0.448404565855
    C           -2.599666234977     0.375435080528     0.518742567687
    F           -3.451584797011     0.658440939524    -0.501431461473
    F           -3.240971660240     0.615076205395     1.684647156848
    C           -1.397700100754     1.354951337807     0.406105178897
    C           -0.094846690610     0.769408227832     0.080446913736
    C            1.020576948311     1.592649069795    -0.102980127123
    C            2.264313642452     1.071186816789    -0.408114970005
    C            2.419005146684    -0.318003346057    -0.542477068773
    C            1.314872795728    -1.154110762328    -0.341002141806
    C            0.066275777814    -0.621251690749    -0.040935868938
    S            3.921816680754    -1.169172953742    -0.907510243284
    C            5.238399715265     0.081553464425    -0.939362355591
    O           -3.177911435944    -1.960522868470     0.630026082421
    O           -1.601951091932     2.537394758752     0.572873828205
    H            3.095184962740     1.751608815770    -0.547305954631
    H            0.882326856344     2.664763577751     0.000541357438
    H           -0.847586677962    -2.485384337993     0.082421488752
    H            1.434679194070    -2.232079470336    -0.421497206246
    H            5.765445129750     0.004726979729    -1.892238367491
    H            4.845751226896     1.094704059685    -0.855474094407
    H            5.931013921621    -0.096170043638    -0.114636533243

	Removing binary optimization data file.
	Cleaning optimization helper files.

    Psi4 stopped on: Tuesday, 22 June 2021 05:58AM
    Psi4 wall time for execution: 0:18:01.07

*** Psi4 exiting successfully. Buy a developer a beer!
