
    -----------------------------------------------------------------------
          Psi4: An Open-Source Ab Initio Electronic Structure Package
                               Psi4 1.3.2 release

                         Git: Rev {HEAD} ecbda83 


    R. M. Parrish, L. A. Burns, D. G. A. Smith, A. C. Simmonett,
    A. E. DePrince III, E. G. Hohenstein, U. Bozkaya, A. Yu. Sokolov,
    R. Di Remigio, R. M. Richard, J. F. Gonthier, A. M. James,
    H. R. McAlexander, A. Kumar, M. Saitow, X. Wang, B. P. Pritchard,
    P. Verma, H. F. Schaefer III, K. Patkowski, R. A. King, E. F. Valeev,
    F. A. Evangelista, J. M. Turney, T. D. Crawford, and C. D. Sherrill,
    J. Chem. Theory Comput. 13(7) pp 3185--3197 (2017).
    (doi: 10.1021/acs.jctc.7b00174)


                         Additional Contributions by
    P. Kraus, H. Kruse, M. H. Lechner, M. C. Schieber, R. A. Shaw,
    A. Alenaizan, R. Galvelis, Z. L. Glick, S. Lehtola, and J. P. Misiewicz

    -----------------------------------------------------------------------


    Psi4 started on: Tuesday, 22 June 2021 01:12AM

    Process ID: 19331
    Host:       cpu-spot-dy-c5n2xlarge-1
    PSIDATADIR: /fsx/users/francis/anaconda3/envs/poltype-dev/share/psi4
    Memory:     500.0 MiB
    Threads:    1
    
  ==> Input File <==

--------------------------------------------------------------------------
molecule { 
0 1
 N   -0.668639   -1.353214   -0.158450
 C   -2.032191   -1.221593   -0.175178
 C   -2.584676    0.221489    0.069767
 F   -3.307115    0.581085   -1.045617
 F   -3.448129    0.158309    1.140728
 C   -1.539211    1.355409    0.354309
 C   -0.104295    0.989858    0.322976
 C    0.882487    1.972986    0.559585
 C    2.244266    1.647408    0.534013
 C    2.656893    0.317537    0.262231
 C    1.671291   -0.669103    0.037518
 C    0.302692   -0.348347    0.064015
 S    4.351929   -0.195702    0.237408
 C    4.639545   -0.701639   -1.478783
 O   -2.744651   -2.194214   -0.378349
 O   -1.911163    2.502307    0.583810
 H    2.972370    2.434303    0.729164
 H    0.556162    2.992892    0.765485
 H   -0.374649   -2.305669   -0.326428
 H    1.975254   -1.700293   -0.146524
 H    4.030629   -1.580751   -1.709367
 H    4.370720    0.120939   -2.148865
 H    5.698516   -0.946050   -1.604410
}
set optking { 
  frozen_dihedral = ("
    11 10 13 14
    9 10 13 14
    21 14 13 10
  ")
}
set {
  geom_maxiter 400
  g_convergence GAU_LOOSE
  dynamic_level 1
}
memory 16GB
set_num_threads(8)
psi4_io.set_default_path("/scratch/Psi4-ligand")
for _ in range(1):
  try:
    set opt_coordinates both
    optimize('wb97x-d/6-31+G*')
    break
  except OptimizationConvergenceError:
    break
  else:
    try:
      set opt_coordinates cartesian
      optimize('wb97x-d/6-31+G*')
      break
    except OptimizationConvergenceError:
      pass
clean()
--------------------------------------------------------------------------

  Memory set to  14.901 GiB by Python driver.
  Threads set to 8 by Python driver.
gradient() will perform analytic gradient computation.

*** tstart() called on cpu-spot-dy-c5n2xlarge-1
*** at Tue Jun 22 01:12:08 2021

   => Loading Basis Set <=

    Name: 6-31+G*
    Role: ORBITAL
    Keyword: BASIS
    atoms 1             entry N          line   138 file /fsx/users/francis/anaconda3/envs/poltype-dev/share/psi4/basis/6-31pgs.gbs 
    atoms 2-3, 6-12, 14 entry C          line   119 file /fsx/users/francis/anaconda3/envs/poltype-dev/share/psi4/basis/6-31pgs.gbs 
    atoms 4-5           entry F          line   176 file /fsx/users/francis/anaconda3/envs/poltype-dev/share/psi4/basis/6-31pgs.gbs 
    atoms 13            entry S          line   344 file /fsx/users/francis/anaconda3/envs/poltype-dev/share/psi4/basis/6-31pgs.gbs 
    atoms 15-16         entry O          line   157 file /fsx/users/francis/anaconda3/envs/poltype-dev/share/psi4/basis/6-31pgs.gbs 
    atoms 17-23         entry H          line    46 file /fsx/users/francis/anaconda3/envs/poltype-dev/share/psi4/basis/6-31pgs.gbs 


         ---------------------------------------------------------
                                   SCF
               by Justin Turney, Rob Parrish, Andy Simmonett
                          and Daniel G. A. Smith
                              RKS Reference
                        8 Threads,  15258 MiB Core
         ---------------------------------------------------------

  ==> Geometry <==

    Molecular point group: c1
    Full point group: C1

    Geometry (in Angstrom), charge = 0, multiplicity = 1:

       Center              X                  Y                   Z               Mass       
    ------------   -----------------  -----------------  -----------------  -----------------
         N           -0.750897047918    -1.499478926617    -0.210276374896    14.003074004430
         C           -2.114449047918    -1.367857926617    -0.227004374896    12.000000000000
         C           -2.666934047918     0.075224073383     0.017940625104    12.000000000000
         F           -3.389373047918     0.434820073383    -1.097443374896    18.998403162730
         F           -3.530387047918     0.012044073383     1.088901625104    18.998403162730
         C           -1.621469047918     1.209144073383     0.302482625104    12.000000000000
         C           -0.186553047918     0.843593073383     0.271149625104    12.000000000000
         C            0.800228952082     1.826721073383     0.507758625104    12.000000000000
         C            2.162007952082     1.501143073383     0.482186625104    12.000000000000
         C            2.574634952082     0.171272073383     0.210404625104    12.000000000000
         C            1.589032952082    -0.815367926617    -0.014308374896    12.000000000000
         C            0.220433952082    -0.494611926617     0.012188625104    12.000000000000
         S            4.269670952082    -0.341966926617     0.185581625104    31.972071174400
         C            4.557286952082    -0.847903926617    -1.530609374896    12.000000000000
         O           -2.826909047918    -2.340478926617    -0.430175374896    15.994914619570
         O           -1.993421047918     2.356042073383     0.531983625104    15.994914619570
         H            2.890111952082     2.288038073383     0.677337625104     1.007825032230
         H            0.473903952082     2.846627073383     0.713658625104     1.007825032230
         H           -0.456907047918    -2.451933926617    -0.378254374896     1.007825032230
         H            1.892995952082    -1.846557926617    -0.198350374896     1.007825032230
         H            3.948370952082    -1.727015926617    -1.761193374896     1.007825032230
         H            4.288461952082    -0.025325926617    -2.200691374896     1.007825032230
         H            5.616257952082    -1.092314926617    -1.656236374896     1.007825032230

  Running in c1 symmetry.

  Rotational constants: A =      0.03519  B =      0.00847  C =      0.00728 [cm^-1]
  Rotational constants: A =   1054.94572  B =    253.93125  C =    218.38815 [MHz]
  Nuclear repulsion = 1178.545299171592887

  Charge       = 0
  Multiplicity = 1
  Electrons    = 124
  Nalpha       = 62
  Nbeta        = 62

  ==> Algorithm <==

  SCF Algorithm Type is DF.
  DIIS enabled.
  MOM disabled.
  Fractional occupation disabled.
  Guess Type is SAD.
  Energy threshold   = 1.00e-08
  Density threshold  = 1.00e-08
  Integral threshold = 0.00e+00

  ==> Primary Basis <==

  Basis Set: 6-31+G*
    Blend: 6-31+G*
    Number of shells: 144
    Number of basis function: 322
    Number of Cartesian functions: 322
    Spherical Harmonics?: false
    Max angular momentum: 2

  ==> DFT Potential <==

   => Composite Functional: WB97X-D <= 

    wB97X-D Hyb-GGA Exchange-Correlation Functional

    J.-D. Chai and M. Head-Gordon, Phys. Chem. Chem. Phys. 10, 6615 (2008)

    Deriv               =              1
    GGA                 =           TRUE
    Meta                =          FALSE

    Exchange Hybrid     =           TRUE
    MP2 Hybrid          =          FALSE

   => Exchange-Correlation Functionals <=

    1.0000   wB97D range-separated functional

   => Exact (HF) Exchange <=

    0.7780            HF,LR [omega = 0.2000]
    0.2220               HF 

   => Molecular Quadrature <=

    Radial Scheme          =       TREUTLER
    Pruning Scheme         =           FLAT
    Nuclear Scheme         =       TREUTLER

    BS radius alpha        =              1
    Pruning alpha          =              1
    Radial Points          =             75
    Spherical Points       =            302
    Total Points           =         520860
    Total Blocks           =           3847
    Max Points             =            256
    Max Functions          =            279

   => WB97X-D: Empirical Dispersion <=

    Chai and Head-Gordon Dispersion Correction
    Chai, J.-D.; Head-Gordon, M. (2010), J. Chem. Phys., 132: 6615-6620

        s6 =       1.000000

   => Loading Basis Set <=

    Name: (6-31+G* AUX)
    Role: JKFIT
    Keyword: DF_BASIS_SCF
    atoms 1             entry N          line   252 file /fsx/users/francis/anaconda3/envs/poltype-dev/share/psi4/basis/heavy-aug-cc-pvdz-jkfit.gbs 
    atoms 2-3, 6-12, 14 entry C          line   194 file /fsx/users/francis/anaconda3/envs/poltype-dev/share/psi4/basis/heavy-aug-cc-pvdz-jkfit.gbs 
    atoms 4-5           entry F          line   368 file /fsx/users/francis/anaconda3/envs/poltype-dev/share/psi4/basis/heavy-aug-cc-pvdz-jkfit.gbs 
    atoms 13            entry S          line   730 file /fsx/users/francis/anaconda3/envs/poltype-dev/share/psi4/basis/heavy-aug-cc-pvdz-jkfit.gbs 
    atoms 15-16         entry O          line   310 file /fsx/users/francis/anaconda3/envs/poltype-dev/share/psi4/basis/heavy-aug-cc-pvdz-jkfit.gbs 
    atoms 17-23         entry H          line   116 file /fsx/users/francis/anaconda3/envs/poltype-dev/share/psi4/basis/heavy-aug-cc-pvdz-jkfit.gbs 

  ==> Pre-Iterations <==

   -------------------------------------------------------
    Irrep   Nso     Nmo     Nalpha   Nbeta   Ndocc  Nsocc
   -------------------------------------------------------
     A        322     322       0       0       0       0
   -------------------------------------------------------
    Total     322     322      62      62      62       0
   -------------------------------------------------------

  ==> Integral Setup <==

  ==> DiskDFJK: Density-Fitted J/K Matrices <==

    J tasked:                  Yes
    K tasked:                  Yes
    wK tasked:                 Yes
    Omega:               2.000E-01
    OpenMP threads:              8
    Integrals threads:           8
    Memory [MiB]:             8428
    Algorithm:                Core
    Integral Cache:           NONE
    Schwarz Cutoff:          1E-12
    Fitting Condition:       1E-10

   => Auxiliary Basis Set <=

  Basis Set: (6-31+G* AUX)
    Blend: HEAVY-AUG-CC-PVDZ-JKFIT
    Number of shells: 523
    Number of basis function: 1840
    Number of Cartesian functions: 1840
    Spherical Harmonics?: false
    Max angular momentum: 3

  Cached 100.0% of DFT collocation blocks in 2.945 [GiB].

  Minimum eigenvalue in the overlap matrix is 6.2364228755E-07.
  Using Symmetric Orthogonalization.

  SCF Guess: Superposition of Atomic Densities via on-the-fly atomic UHF.

  ==> Iterations <==

                           Total Energy        Delta E     RMS |[F,P]|

   @DF-RKS iter SAD: -1187.21145886431077   -1.18721e+03   0.00000e+00 
   @DF-RKS iter   1: -1187.60265110566684   -3.91192e-01   3.26525e-03 DIIS
   @DF-RKS iter   2: -1187.61680061015204   -1.41495e-02   3.55081e-03 DIIS
   @DF-RKS iter   3: -1188.08235273361061   -4.65552e-01   8.23001e-04 DIIS
   @DF-RKS iter   4: -1188.10970904705277   -2.73563e-02   2.13809e-04 DIIS
   @DF-RKS iter   5: -1188.11191483182097   -2.20578e-03   6.45501e-05 DIIS
   @DF-RKS iter   6: -1188.11219526492164   -2.80433e-04   2.19628e-05 DIIS
   @DF-RKS iter   7: -1188.11223760750090   -4.23426e-05   8.09348e-06 DIIS
   @DF-RKS iter   8: -1188.11225011908027   -1.25116e-05   3.28589e-06 DIIS
   @DF-RKS iter   9: -1188.11225272437923   -2.60530e-06   2.15428e-06 DIIS
   @DF-RKS iter  10: -1188.11225313004229   -4.05663e-07   6.53216e-07 DIIS
   @DF-RKS iter  11: -1188.11225318357083   -5.35285e-08   2.64160e-07 DIIS
   @DF-RKS iter  12: -1188.11225319016876   -6.59793e-09   1.18072e-07 DIIS
   @DF-RKS iter  13: -1188.11225319172399   -1.55524e-09   4.49922e-08 DIIS
   @DF-RKS iter  14: -1188.11225319189248   -1.68484e-10   2.13562e-08 DIIS
   @DF-RKS iter  15: -1188.11225319193363   -4.11546e-11   8.79303e-09 DIIS
  Energy and wave function converged.


  ==> Post-Iterations <==

    Orbital Energies [Eh]
    ---------------------

    Doubly Occupied:                                                      

       1A    -89.072489     2A    -24.877789     3A    -24.876452  
       4A    -19.312293     5A    -19.296951     6A    -14.546001  
       7A    -10.514753     8A    -10.461831     9A    -10.441499  
      10A    -10.413980    11A    -10.386714    12A    -10.361335  
      13A    -10.357222    14A    -10.357035    15A    -10.351391  
      16A    -10.349009    17A     -8.089997    18A     -6.040864  
      19A     -6.036553    20A     -6.029685    21A     -1.385525  
      22A     -1.329114    23A     -1.192277    24A     -1.181232  
      25A     -1.095660    26A     -1.000846    27A     -0.939874  
      28A     -0.904318    29A     -0.890032    30A     -0.867961  
      31A     -0.794614    32A     -0.768244    33A     -0.754850  
      34A     -0.741536    35A     -0.696739    36A     -0.680846  
      37A     -0.669745    38A     -0.646518    39A     -0.630042  
      40A     -0.592037    41A     -0.579728    42A     -0.568455  
      43A     -0.564295    44A     -0.560922    45A     -0.555033  
      46A     -0.553686    47A     -0.541625    48A     -0.536136  
      49A     -0.531734    50A     -0.519913    51A     -0.511262  
      52A     -0.504116    53A     -0.494806    54A     -0.481638  
      55A     -0.475433    56A     -0.442945    57A     -0.420988  
      58A     -0.399327    59A     -0.375009    60A     -0.372771  
      61A     -0.341057    62A     -0.329122  

    Virtual:                                                              

      63A     -0.055330    64A      0.007470    65A      0.038616  
      66A      0.043189    67A      0.058828    68A      0.059664  
      69A      0.062889    70A      0.073545    71A      0.076616  
      72A      0.090532    73A      0.091665    74A      0.096344  
      75A      0.105974    76A      0.109631    77A      0.112942  
      78A      0.117729    79A      0.122612    80A      0.128490  
      81A      0.138091    82A      0.139386    83A      0.140316  
      84A      0.146667    85A      0.159631    86A      0.161554  
      87A      0.163888    88A      0.172687    89A      0.176225  
      90A      0.177439    91A      0.183239    92A      0.186561  
      93A      0.192270    94A      0.197829    95A      0.202589  
      96A      0.207526    97A      0.211597    98A      0.216489  
      99A      0.221790   100A      0.227207   101A      0.234332  
     102A      0.235682   103A      0.239554   104A      0.241112  
     105A      0.247199   106A      0.251147   107A      0.255377  
     108A      0.259039   109A      0.261285   110A      0.273906  
     111A      0.276112   112A      0.284142   113A      0.285405  
     114A      0.289159   115A      0.296033   116A      0.300229  
     117A      0.300762   118A      0.309912   119A      0.313845  
     120A      0.317178   121A      0.318748   122A      0.328599  
     123A      0.330299   124A      0.339249   125A      0.353568  
     126A      0.359041   127A      0.361756   128A      0.368695  
     129A      0.380286   130A      0.382417   131A      0.388926  
     132A      0.389803   133A      0.392912   134A      0.397895  
     135A      0.405750   136A      0.412547   137A      0.423474  
     138A      0.429599   139A      0.441316   140A      0.443811  
     141A      0.456064   142A      0.464736   143A      0.475997  
     144A      0.491199   145A      0.498842   146A      0.507780  
     147A      0.524359   148A      0.527796   149A      0.535146  
     150A      0.550139   151A      0.558227   152A      0.574826  
     153A      0.587157   154A      0.601973   155A      0.605571  
     156A      0.640894   157A      0.658360   158A      0.669403  
     159A      0.691559   160A      0.699073   161A      0.714391  
     162A      0.736947   163A      0.745318   164A      0.749836  
     165A      0.766331   166A      0.775598   167A      0.792742  
     168A      0.797494   169A      0.815533   170A      0.821955  
     171A      0.828431   172A      0.864863   173A      0.871282  
     174A      0.874165   175A      0.884058   176A      0.895051  
     177A      0.909954   178A      0.911875   179A      0.931403  
     180A      0.940984   181A      0.956190   182A      0.968342  
     183A      0.976840   184A      0.985680   185A      1.004782  
     186A      1.021367   187A      1.040733   188A      1.052267  
     189A      1.062472   190A      1.075936   191A      1.080200  
     192A      1.094668   193A      1.110739   194A      1.138827  
     195A      1.162650   196A      1.168506   197A      1.196505  
     198A      1.200529   199A      1.203729   200A      1.213177  
     201A      1.221669   202A      1.232962   203A      1.262432  
     204A      1.281569   205A      1.287717   206A      1.317990  
     207A      1.323813   208A      1.332784   209A      1.340696  
     210A      1.363472   211A      1.394126   212A      1.401843  
     213A      1.412421   214A      1.416375   215A      1.437290  
     216A      1.445001   217A      1.449238   218A      1.461882  
     219A      1.466652   220A      1.484699   221A      1.502234  
     222A      1.514806   223A      1.521391   224A      1.529589  
     225A      1.547855   226A      1.595206   227A      1.616864  
     228A      1.645636   229A      1.659485   230A      1.666224  
     231A      1.704532   232A      1.745187   233A      1.749146  
     234A      1.754704   235A      1.758727   236A      1.770706  
     237A      1.773458   238A      1.779959   239A      1.798370  
     240A      1.816615   241A      1.834625   242A      1.858565  
     243A      1.869060   244A      1.892503   245A      1.898112  
     246A      1.902688   247A      1.915844   248A      1.944419  
     249A      1.959552   250A      1.963125   251A      1.968879  
     252A      2.003826   253A      2.034586   254A      2.040224  
     255A      2.053959   256A      2.057073   257A      2.075115  
     258A      2.086977   259A      2.097649   260A      2.110053  
     261A      2.141209   262A      2.148441   263A      2.162971  
     264A      2.198647   265A      2.203069   266A      2.208400  
     267A      2.245896   268A      2.256163   269A      2.261268  
     270A      2.270264   271A      2.303226   272A      2.306518  
     273A      2.328823   274A      2.333945   275A      2.349982  
     276A      2.363201   277A      2.377265   278A      2.399192  
     279A      2.459488   280A      2.461894   281A      2.507508  
     282A      2.511946   283A      2.564446   284A      2.623815  
     285A      2.651986   286A      2.670567   287A      2.702529  
     288A      2.722937   289A      2.732091   290A      2.763162  
     291A      2.765501   292A      2.818415   293A      2.823974  
     294A      2.847793   295A      2.893525   296A      2.944866  
     297A      2.959769   298A      3.024244   299A      3.117589  
     300A      3.150878   301A      3.207933   302A      3.230858  
     303A      3.334147   304A      3.374428   305A      3.459704  
     306A      3.481971   307A      4.042928   308A      4.275502  
     309A      4.311859   310A      4.328398   311A      4.360655  
     312A      4.371251   313A      4.412237   314A      4.465977  
     315A      4.480566   316A      4.521712   317A      4.577432  
     318A      4.775855   319A      4.832005   320A      5.109172  
     321A      5.695683   322A      7.135100  

    Final Occupation by Irrep:
              A 
    DOCC [    62 ]

  @DF-RKS Final Energy: -1188.11225319193363

   => Energetics <=

    Nuclear Repulsion Energy =           1178.5452991715928874
    One-Electron Energy =               -3971.0573452372236716
    Two-Electron Energy =                1693.8585102278577779
    DFT Exchange-Correlation Energy =     -89.4451691772473083
    Empirical Dispersion Energy =          -0.0135481769132215
    VV10 Nonlocal Energy =                  0.0000000000000000
    Total Energy =                      -1188.1122531919336325

Computation Completed


Properties will be evaluated at   0.000000,   0.000000,   0.000000 [a0]

Properties computed using the SCF density matrix

  Nuclear Dipole Moment: [e a0]
     X:    24.1063      Y:    -2.3090      Z:    -4.4893

  Electronic Dipole Moment: [e a0]
     X:   -21.4850      Y:     1.8404      Z:     3.8722

  Dipole Moment: [e a0]
     X:     2.6212      Y:    -0.4686      Z:    -0.6171     Total:     2.7334

  Dipole Moment: [D]
     X:     6.6625      Y:    -1.1911      Z:    -1.5686     Total:     6.9476


*** tstop() called on cpu-spot-dy-c5n2xlarge-1 at Tue Jun 22 01:13:21 2021
Module time:
	user time   =     542.17 seconds =       9.04 minutes
	system time =       9.83 seconds =       0.16 minutes
	total time  =         73 seconds =       1.22 minutes
Total time:
	user time   =     542.17 seconds =       9.04 minutes
	system time =       9.83 seconds =       0.16 minutes
	total time  =         73 seconds =       1.22 minutes

*** tstart() called on cpu-spot-dy-c5n2xlarge-1
*** at Tue Jun 22 01:13:21 2021


         ------------------------------------------------------------
                                   SCF GRAD                          
                          Rob Parrish, Justin Turney,                
                       Andy Simmonett, and Alex Sokolov              
         ------------------------------------------------------------

  ==> Geometry <==

    Molecular point group: c1
    Full point group: C1

    Geometry (in Angstrom), charge = 0, multiplicity = 1:

       Center              X                  Y                   Z               Mass       
    ------------   -----------------  -----------------  -----------------  -----------------
         N           -0.750897047918    -1.499478926617    -0.210276374896    14.003074004430
         C           -2.114449047918    -1.367857926617    -0.227004374896    12.000000000000
         C           -2.666934047918     0.075224073383     0.017940625104    12.000000000000
         F           -3.389373047918     0.434820073383    -1.097443374896    18.998403162730
         F           -3.530387047918     0.012044073383     1.088901625104    18.998403162730
         C           -1.621469047918     1.209144073383     0.302482625104    12.000000000000
         C           -0.186553047918     0.843593073383     0.271149625104    12.000000000000
         C            0.800228952082     1.826721073383     0.507758625104    12.000000000000
         C            2.162007952082     1.501143073383     0.482186625104    12.000000000000
         C            2.574634952082     0.171272073383     0.210404625104    12.000000000000
         C            1.589032952082    -0.815367926617    -0.014308374896    12.000000000000
         C            0.220433952082    -0.494611926617     0.012188625104    12.000000000000
         S            4.269670952082    -0.341966926617     0.185581625104    31.972071174400
         C            4.557286952082    -0.847903926617    -1.530609374896    12.000000000000
         O           -2.826909047918    -2.340478926617    -0.430175374896    15.994914619570
         O           -1.993421047918     2.356042073383     0.531983625104    15.994914619570
         H            2.890111952082     2.288038073383     0.677337625104     1.007825032230
         H            0.473903952082     2.846627073383     0.713658625104     1.007825032230
         H           -0.456907047918    -2.451933926617    -0.378254374896     1.007825032230
         H            1.892995952082    -1.846557926617    -0.198350374896     1.007825032230
         H            3.948370952082    -1.727015926617    -1.761193374896     1.007825032230
         H            4.288461952082    -0.025325926617    -2.200691374896     1.007825032230
         H            5.616257952082    -1.092314926617    -1.656236374896     1.007825032230

  Nuclear repulsion = 1178.545299171592887

  ==> Basis Set <==

  Basis Set: 6-31+G*
    Blend: 6-31+G*
    Number of shells: 144
    Number of basis function: 322
    Number of Cartesian functions: 322
    Spherical Harmonics?: false
    Max angular momentum: 2

  ==> DFJKGrad: Density-Fitted SCF Gradients <==

    Gradient:                    1
    J tasked:                  Yes
    K tasked:                  Yes
    wK tasked:                 Yes
    Omega:               2.000E-01
    OpenMP threads:              8
    Integrals threads:           8
    Memory [MiB]:            11444
    Schwarz Cutoff:          0E+00
    Fitting Condition:       1E-10

   => Auxiliary Basis Set <=

  Basis Set: (6-31+G* AUX)
    Blend: HEAVY-AUG-CC-PVDZ-JKFIT
    Number of shells: 523
    Number of basis function: 1840
    Number of Cartesian functions: 1840
    Spherical Harmonics?: false
    Max angular momentum: 3

  ==> DFT Potential <==

   => Composite Functional: WB97X-D <= 

    wB97X-D Hyb-GGA Exchange-Correlation Functional

    J.-D. Chai and M. Head-Gordon, Phys. Chem. Chem. Phys. 10, 6615 (2008)

    Deriv               =              1
    GGA                 =           TRUE
    Meta                =          FALSE

    Exchange Hybrid     =           TRUE
    MP2 Hybrid          =          FALSE

   => Exchange-Correlation Functionals <=

    1.0000   wB97D range-separated functional

   => Exact (HF) Exchange <=

    0.7780            HF,LR [omega = 0.2000]
    0.2220               HF 

   => Molecular Quadrature <=

    Radial Scheme          =       TREUTLER
    Pruning Scheme         =           FLAT
    Nuclear Scheme         =       TREUTLER

    BS radius alpha        =              1
    Pruning alpha          =              1
    Radial Points          =             75
    Spherical Points       =            302
    Total Points           =         520860
    Total Blocks           =           3847
    Max Points             =            256
    Max Functions          =            279


  -Total Gradient:
     Atom            X                  Y                   Z
    ------   -----------------  -----------------  -----------------
       1       -0.006916838625    -0.012092067898    -0.002371124768
       2        0.006214279153     0.013148641171     0.002719310997
       3        0.014121757091    -0.001413938850    -0.001270160092
       4       -0.009249526236     0.004649971461    -0.014701489968
       5       -0.011883448151    -0.000967755000     0.015520578095
       6       -0.001618121465    -0.024035036206    -0.004539554010
       7       -0.006912159820     0.008014773652     0.001261351335
       8       -0.002336155297     0.012232825796     0.000925899124
       9        0.002634709423     0.004595710009     0.000660858670
      10        0.024526428750     0.002063472825     0.006923070419
      11        0.005054046647    -0.006914449113    -0.000712880982
      12        0.003109296724    -0.006284755205    -0.000350466259
      13       -0.014130421813    -0.007496764436    -0.013243598063
      14        0.012900245643    -0.001354875529     0.005005532554
      15       -0.005243603275    -0.022779236039    -0.004395980033
      16       -0.000689999394     0.030679912479     0.006296725444
      17       -0.000433114058     0.004430468909     0.001763258695
      18       -0.001148654046     0.003576486832     0.000967874687
      19       -0.004274509617     0.001075534680     0.000024198813
      20        0.000686627165    -0.002563370607    -0.000871653494
      21       -0.002425419645    -0.000026820680     0.003127104082
      22       -0.001967263317     0.002207477888     0.001291137688
      23        0.001371681105    -0.000962397189    -0.003833519314


*** tstop() called on cpu-spot-dy-c5n2xlarge-1 at Tue Jun 22 01:13:44 2021
Module time:
	user time   =     150.37 seconds =       2.51 minutes
	system time =       3.64 seconds =       0.06 minutes
	total time  =         23 seconds =       0.38 minutes
Total time:
	user time   =     692.55 seconds =      11.54 minutes
	system time =      13.47 seconds =       0.22 minutes
	total time  =         96 seconds =       1.60 minutes

			-----------------------------------------
			 OPTKING 2.0: for geometry optimizations 
			  - R.A. King,  Bethel University        
			-----------------------------------------
	At level 1: Red. Int., RFO, no backsteps, dynamic trust

	Internal coordinates to be generated automatically.
	Detected frag 1 with atoms:  1 2 3 4 5 6 7 8 9 10 11 12 13 14 15 16 17 18 19 20
	 21 22 23
	---Fragment 1 Bond Connectivity---
	 1 : 2 12 19
	 2 : 1 3 15
	 3 : 2 4 5 6
	 4 : 3
	 5 : 3
	 6 : 3 7 16
	 7 : 6 8 12
	 8 : 7 9 18
	 9 : 8 10 17
	 10 : 9 11 13
	 11 : 10 12 20
	 12 : 1 7 11
	 13 : 10 14
	 14 : 13 21 22 23
	 15 : 2
	 16 : 6
	 17 : 9
	 18 : 8
	 19 : 1
	 20 : 11
	 21 : 14
	 22 : 14
	 23 : 14

	Assuming in current code that numbering for constraints corresponds to unified fragment.
	Frozen dihedral atom list: 
	    11    10    13    14
	     9    10    13    14
	    21    14    13    10
	---Fragment 1 Geometry and Gradient---
	 N          -1.4189897690       -2.8336045022       -0.3973647592
	 C          -3.9957296068       -2.5848768598       -0.4289760978
	 C          -5.0397749452        0.1421528967        0.0339028680
	 F          -6.4049867976        0.8216908525       -2.0738674168
	 F          -6.6714646374        0.0227600001        2.0577258490
	 C          -3.0641324215        2.2849511449        0.5716093192
	 C          -0.3525341684        1.5941598700        0.5123985305
	 C           1.5122135571        3.4520025363        0.9595247393
	 C           4.0856029105        2.8367492838        0.9112006628
	 C           4.8653549325        0.3236573116        0.3976071170
	 C           3.0028370838       -1.5408220728       -0.0270389099
	 C           0.4165597982       -0.9346810797        0.0230331633
	 S           8.0685087453       -0.6462238353        0.3506984454
	 C           8.6120242146       -1.6023062020       -2.8924325236
	 O          -5.3420838821       -4.4228641737       -0.8129136445
	 O          -3.7670198333        4.4522742587        1.0053033547
	 H           5.4615200613        4.3237653233        1.2799826059
	 H           0.8955486792        5.3793455500        1.3486193485
	 H          -0.8634291854       -4.6334835990       -0.7147971743
	 H           3.5772439060       -3.4894887561       -0.3748278854
	 H           7.4613397411       -3.2635871156       -3.3281731325
	 H           8.1040185889       -0.0478590652       -4.1587039852
	 H          10.6131893794       -2.0641760541       -3.1298331476
	            -0.0069168386       -0.0120920679       -0.0023711248
	             0.0062142792        0.0131486412        0.0027193110
	             0.0141217571       -0.0014139389       -0.0012701601
	            -0.0092495262        0.0046499715       -0.0147014900
	            -0.0118834482       -0.0009677550        0.0155205781
	            -0.0016181215       -0.0240350362       -0.0045395540
	            -0.0069121598        0.0080147737        0.0012613513
	            -0.0023361553        0.0122328258        0.0009258991
	             0.0026347094        0.0045957100        0.0006608587
	             0.0245264288        0.0020634728        0.0069230704
	             0.0050540466       -0.0069144491       -0.0007128810
	             0.0031092967       -0.0062847552       -0.0003504663
	            -0.0141304218       -0.0074967644       -0.0132435981
	             0.0129002456       -0.0013548755        0.0050055326
	            -0.0052436033       -0.0227792360       -0.0043959800
	            -0.0006899994        0.0306799125        0.0062967254
	            -0.0004331141        0.0044304689        0.0017632587
	            -0.0011486540        0.0035764868        0.0009678747
	            -0.0042745096        0.0010755347        0.0000241988
	             0.0006866272       -0.0025633706       -0.0008716535
	            -0.0024254196       -0.0000268207        0.0031271041
	            -0.0019672633        0.0022074779        0.0012911377
	             0.0013716811       -0.0009623972       -0.0038335193

	Previous optimization step data not found.  Starting new optimization.

	---Fragment 1 Intrafragment Coordinates---
	 - Coordinate -           - BOHR/RAD -       - ANG/DEG -
	 R(1,2)           =         2.588910	       1.369992
	 R(1,12)          =         2.674301	       1.415179
	 R(1,19)          =         1.910229	       1.010850
	 R(2,3)           =         2.956515	       1.564520
	 R(2,15)          =         2.310471	       1.222648
	 R(3,4)           =         2.601590	       1.376702
	 R(3,5)           =         2.602408	       1.377135
	 R(3,6)           =         2.963760	       1.568354
	 R(6,7)           =         2.798833	       1.481078
	 R(6,16)          =         2.319360	       1.227352
	 R(7,8)           =         2.669979	       1.412892
	 R(7,12)          =         2.688126	       1.422495
	 R(8,9)           =         2.646357	       1.400392
	 R(8,18)          =         2.060660	       1.090455
	 R(9,10)          =         2.680937	       1.418691
	 R(9,17)          =         2.059215	       1.089689
	 R(10,11)         =         2.669378	       1.412574
	 R(10,13)         =         3.347098	       1.771208
	 R(11,12)         =         2.656830	       1.405934
	 R(11,20)         =         2.061117	       1.090696
	 R(13,14)         =         3.424529	       1.812183
	 R(14,21)         =         2.067317	       1.093977
	 R(14,22)         =         2.068289	       1.094491
	 R(14,23)         =         2.067449	       1.094047
	 B(1,2,3)         =         2.024368	     115.987762
	 B(1,2,15)        =         2.100852	     120.369927
	 B(1,12,7)        =         2.094662	     120.015318
	 B(1,12,11)       =         2.098071	     120.210599
	 B(2,1,12)        =         2.235518	     128.085758
	 B(2,1,19)        =         1.958391	     112.207538
	 B(2,3,4)         =         1.874852	     107.421132
	 B(2,3,5)         =         1.876380	     107.508650
	 B(2,3,6)         =         2.048663	     117.379763
	 B(3,2,15)        =         2.157952	     123.641529
	 B(3,6,7)         =         2.052781	     117.615681
	 B(3,6,16)        =         2.103096	     120.498543
	 B(4,3,5)         =         1.889170	     108.241448
	 B(4,3,6)         =         1.883830	     107.935530
	 B(5,3,6)         =         1.886023	     108.061143
	 B(6,7,8)         =         2.095969	     120.090160
	 B(6,7,12)        =         2.109741	     120.879276
	 B(7,6,16)        =         2.127273	     121.883762
	 B(7,8,9)         =         2.111016	     120.952318
	 B(7,8,18)        =         2.063972	     118.256899
	 B(7,12,11)       =         2.090435	     119.773131
	 B(8,7,12)        =         2.077457	     119.029543
	 B(8,9,10)        =         2.099326	     120.282533
	 B(8,9,17)        =         2.069849	     118.593613
	 B(9,8,18)        =         2.108194	     120.790600
	 B(9,10,11)       =         2.074051	     118.834384
	 B(9,10,13)       =         2.156341	     123.549248
	 B(10,9,17)       =         2.114007	     121.123655
	 B(10,11,12)      =         2.113971	     121.121606
	 B(10,11,20)      =         2.086050	     119.521872
	 B(10,13,14)      =         1.819408	     104.244399
	 B(11,10,13)      =         2.052291	     117.587633
	 B(12,1,19)       =         2.089262	     119.705900
	 B(12,11,20)      =         2.083074	     119.351370
	 B(13,14,21)      =         1.913063	     109.610411
	 B(13,14,22)      =         1.908152	     109.329059
	 B(13,14,23)      =         1.901533	     108.949817
	 B(21,14,22)      =         1.915794	     109.766888
	 B(21,14,23)      =         1.912440	     109.574742
	 B(22,14,23)      =         1.912763	     109.593223
	 D(1,2,3,4)       =         2.090718	     119.789294
	 D(1,2,3,5)       =        -2.162733	    -123.915480
	 D(1,2,3,6)       =        -0.033944	      -1.944837
	 D(1,12,7,6)      =        -0.007998	      -0.458231
	 D(1,12,7,8)      =         3.127184	     179.174451
	 D(1,12,11,10)    =        -3.137181	    -179.747247
	 D(1,12,11,20)    =        -0.010069	      -0.576935
	 D(2,1,12,7)      =         0.011971	       0.685888
	 D(2,1,12,11)     =        -3.135829	    -179.669780
	 D(2,3,6,7)       =         0.037247	       2.134102
	 D(2,3,6,16)      =        -3.113186	    -178.372425
	 D(3,2,1,12)      =         0.010205	       0.584695
	 D(3,2,1,19)      =        -3.137170	    -179.746577
	 D(3,6,7,8)       =         3.131345	     179.412871
	 D(3,6,7,12)      =        -0.016726	      -0.958324
	 D(4,3,2,15)      =        -1.045266	     -59.889307
	 D(4,3,6,7)       =        -2.082763	    -119.333538
	 D(4,3,6,16)      =         1.049989	      60.159935
	 D(5,3,2,15)      =         0.984469	      56.405919
	 D(5,3,6,7)       =         2.161053	     123.819218
	 D(5,3,6,16)      =        -0.989380	     -56.687309
	 D(6,3,2,15)      =         3.113258	     178.376563
	 D(6,7,8,9)       =        -3.141349	    -179.986054
	 D(6,7,8,18)      =         0.002934	       0.168097
	 D(6,7,12,11)     =         3.139775	     179.895873
	 D(7,8,9,10)      =         0.005069	       0.290434
	 D(7,8,9,17)      =        -3.133721	    -179.548967
	 D(7,12,1,19)     =        -3.123459	    -178.961009
	 D(7,12,11,10)    =        -0.001781	      -0.102052
	 D(7,12,11,20)    =         3.125331	     179.068260
	 D(8,7,6,16)      =        -0.001276	      -0.073132
	 D(8,7,12,11)     =        -0.008228	      -0.471445
	 D(8,9,10,11)     =        -0.014924	      -0.855057
	 D(8,9,10,13)     =        -3.121621	    -178.855718
	 D(9,8,7,12)      =         0.006603	       0.378297
	 D(9,10,11,12)    =         0.013320	       0.763203
	 D(9,10,11,20)    =        -3.113767	    -178.405715
	*D(9,10,13,14)    =        -2.023477	    -115.936717
	 D(10,9,8,18)     =        -3.139282	    -179.867627
	*D(10,13,14,21)   =        -1.142210	     -65.443807
	 D(10,13,14,22)   =         0.958475	      54.916587
	 D(10,13,14,23)   =         3.048453	     174.663466
	 D(11,10,9,17)    =         3.123794	     178.980221
	*D(11,10,13,14)   =         1.152605	      66.039410
	 D(11,12,1,19)    =         0.011926	       0.683323
	 D(12,1,2,15)     =        -3.136801	    -179.725433
	 D(12,7,6,16)     =         3.133838	     179.555673
	 D(12,7,8,18)     =        -3.132300	    -179.467552
	 D(12,11,10,13)   =         3.122101	     178.883223
	 D(13,10,9,17)    =         0.017097	       0.979560
	 D(13,10,11,20)   =        -0.004986	      -0.285695
	 D(15,2,1,19)     =        -0.000990	      -0.056704
	 D(17,9,8,18)     =         0.005113	       0.292972

	Current energy   :     -1188.1122531919

	Generating empirical Hessian (Schlegel '84) for each fragment.
	Taking RFO optimization step.
	Going to follow RFO solution 1.
	Using RFO vector 1.
	Norm of target step-size    0.21389
	Projected energy change by RFO approximation:        -0.0141621145

	Back-transformation to cartesian coordinates...
	Could not converge backtransformation.
	Using first guess instead.

	Back-transformation to cartesian coordinates to adjust frozen coordinates...
	Successfully converged to displaced geometry.

	--- Internal Coordinate Step in ANG or DEG, aJ/ANG or AJ/DEG ---
	 ---------------------------------------------------------------------------
	   Coordinate                Previous        Force       Change         New 
	   ----------                --------       ------       ------       ------
	    1 R(1,2)          =      1.369992    -0.007842     0.154422     1.524414
	    2 R(1,12)         =      1.415179    -0.122854     0.064825     1.480004
	    3 R(1,19)         =      1.010850     0.018805     0.185702     1.196552
	    4 R(2,3)          =      1.564520    -0.096482     0.261638     1.826158
	    5 R(2,15)         =      1.222648    -0.180749     0.066457     1.289106
	    6 R(3,4)          =      1.376702    -0.148482     0.288748     1.665450
	    7 R(3,5)          =      1.377135    -0.161425     0.155083     1.532218
	    8 R(3,6)          =      1.568354    -0.090739     0.074097     1.642452
	    9 R(6,7)          =      1.481078    -0.058174     0.186121     1.667199
	   10 R(6,16)         =      1.227352    -0.247802     0.201941     1.429293
	   11 R(7,8)          =      1.412892    -0.113492     0.065561     1.478453
	   12 R(7,12)         =      1.422495    -0.131369     0.227593     1.650088
	   13 R(8,9)          =      1.400392    -0.118181     0.165095     1.565487
	   14 R(8,18)         =      1.090455    -0.032112     0.187030     1.277485
	   15 R(9,10)         =      1.418691    -0.148248     0.224805     1.643496
	   16 R(9,17)         =      1.089689    -0.026283     0.059766     1.149455
	   17 R(10,11)        =      1.412574    -0.108404     0.065697     1.478272
	   18 R(10,13)        =      1.771208     0.016887     0.246376     2.017584
	   19 R(11,12)        =      1.405934    -0.114498     0.168250     1.574184
	   20 R(11,20)        =      1.090696    -0.022549     0.188142     1.278838
	   21 R(13,14)        =      1.812183     0.030686     0.344170     2.156353
	   22 R(14,21)        =      1.093977    -0.006034     0.084509     1.178486
	   23 R(14,22)        =      1.094491    -0.011380     0.231097     1.325588
	   24 R(14,23)        =      1.094047    -0.015851     0.129576     1.223623
	   25 B(1,2,3)        =    115.987762    -0.000077     8.374529   124.362291
	   26 B(1,2,15)       =    120.369927     0.000849     1.164039   121.533967
	   27 B(1,12,7)       =    120.015318     0.000247    -7.611831   112.403487
	   28 B(1,12,11)      =    120.210599    -0.000301     0.079637   120.290236
	   29 B(2,1,12)       =    128.085758    -0.000161    -0.782132   127.303626
	   30 B(2,1,19)       =    112.207538     0.000359    10.015046   122.222584
	   31 B(2,3,4)        =    107.421132    -0.000011     5.310137   112.731269
	   32 B(2,3,5)        =    107.508650    -0.000014     1.996966   109.505616
	   33 B(2,3,6)        =    117.379763     0.000058    -7.977559   109.402204
	   34 B(3,2,15)       =    123.641529    -0.000771    -9.563028   114.078501
	   35 B(3,6,7)        =    117.615681    -0.000105     0.590515   118.206197
	   36 B(3,6,16)       =    120.498543    -0.000721   -10.139524   110.359020
	   37 B(4,3,5)        =    108.241448    -0.000015     0.943978   109.185426
	   38 B(4,3,6)        =    107.935530    -0.000019     2.169266   110.104796
	   39 B(5,3,6)        =    108.061143    -0.000004    -2.394836   105.666308
	   40 B(6,7,8)        =    120.090160    -0.000049     1.120408   121.210568
	   41 B(6,7,12)       =    120.879276     0.000038     7.348722   128.227997
	   42 B(7,6,16)       =    121.883762     0.000827     9.537627   131.421389
	   43 B(7,8,9)        =    120.952318     0.000038     1.250401   122.202719
	   44 B(7,8,18)       =    118.256899    -0.000015    -8.587947   109.668952
	   45 B(7,12,11)      =    119.773131     0.000054     7.533136   127.306266
	   46 B(8,7,12)       =    119.029543     0.000012    -8.479848   110.549696
	   47 B(8,9,10)       =    120.282533    -0.000153     6.960721   127.243254
	   48 B(8,9,17)       =    118.593613     0.000351     2.310629   120.904242
	   49 B(9,8,18)       =    120.790600    -0.000022     7.315767   128.106367
	   50 B(9,10,11)      =    118.834384     0.000284    -7.731893   111.102491
	   51 B(9,10,13)      =    123.549248    -0.001039     4.282045   127.831293
	   52 B(10,9,17)      =    121.123655    -0.000198    -9.279185   111.844470
	   53 B(10,11,12)     =    121.121606    -0.000233     0.453020   121.574626
	   54 B(10,11,20)     =    119.521872     0.000105    -8.222965   111.298907
	   55 B(10,13,14)     =    104.244399    -0.001547    -2.309046   101.935353
	   56 B(11,10,13)     =    117.587633     0.000755     3.453866   121.041498
	   57 B(12,1,19)      =    119.705900    -0.000198    -9.253840   110.452059
	   58 B(12,11,20)     =    119.351370     0.000128     7.746280   127.097650
	   59 B(13,14,21)     =    109.610411     0.000503     1.542130   111.152541
	   60 B(13,14,22)     =    109.329059     0.000325     5.013842   114.342901
	   61 B(13,14,23)     =    108.949817    -0.000600    -0.831794   108.118023
	   62 B(21,14,22)     =    109.766888    -0.000188    -5.507338   104.259550
	   63 B(21,14,23)     =    109.574742    -0.000006    -1.389613   108.185129
	   64 B(22,14,23)     =    109.593223    -0.000036     1.028347   110.621570
	   65 D(1,2,3,4)      =    119.789294     0.000002    -0.383226   119.406068
	   66 D(1,2,3,5)      =   -123.915480    -0.000005     5.084035  -118.831445
	   67 D(1,2,3,6)      =     -1.944837     0.000001    -1.515282    -3.460119
	   68 D(1,12,7,6)     =     -0.458231    -0.000002     0.704898     0.246666
	   69 D(1,12,7,8)     =    179.174451    -0.000000    -0.178407   178.996044
	   70 D(1,12,11,10)   =   -179.747247    -0.000002    -0.137072  -179.884319
	   71 D(1,12,11,20)   =     -0.576935    -0.000004    -1.435210    -2.012145
	   72 D(2,1,12,7)     =      0.685888     0.000001    -1.019156    -0.333268
	   73 D(2,1,12,11)    =   -179.669780    -0.000003    -0.629040  -180.298819
	   74 D(2,3,6,7)      =      2.134102    -0.000001     0.993227     3.127329
	   75 D(2,3,6,16)     =   -178.372425     0.000001     0.319492  -178.052933
	   76 D(3,2,1,12)     =      0.584695    -0.000001     1.543550     2.128245
	   77 D(3,2,1,19)     =   -179.746577    -0.000001     0.012761  -179.733816
	   78 D(3,6,7,8)      =    179.412871     0.000000    -0.061552   179.351319
	   79 D(3,6,7,12)     =     -0.958324     0.000002    -1.059590    -2.017914
	   80 D(4,3,2,15)     =    -59.889307     0.000002     1.103956   -58.785350
	   81 D(4,3,6,7)      =   -119.333538    -0.000004    -1.953788  -121.287326
	   82 D(4,3,6,16)     =     60.159935    -0.000001    -2.627523    57.532412
	   83 D(5,3,2,15)     =     56.405919    -0.000005     6.571217    62.977137
	   84 D(5,3,6,7)      =    123.819218     0.000003    -2.888647   120.930571
	   85 D(5,3,6,16)     =    -56.687309     0.000006    -3.562382   -60.249691
	   86 D(6,3,2,15)     =    178.376563     0.000000    -0.028100   178.348463
	   87 D(6,7,8,9)      =   -179.986054     0.000005     0.485061  -179.500993
	   88 D(6,7,8,18)     =      0.168097    -0.000004    -1.245468    -1.077371
	   89 D(6,7,12,11)    =    179.895873     0.000002     0.313397   180.209269
	   90 D(7,8,9,10)     =      0.290434    -0.000009    -1.952529    -1.662094
	   91 D(7,8,9,17)     =   -179.548967    -0.000010    -0.994620  -180.543587
	   92 D(7,12,1,19)    =   -178.961009     0.000001     0.308936  -178.652074
	   93 D(7,12,11,10)   =     -0.102052    -0.000006     0.257773     0.155721
	   94 D(7,12,11,20)   =    179.068260    -0.000008    -1.040365   178.027895
	   95 D(8,7,6,16)     =     -0.073132    -0.000001     0.900154     0.827021
	   96 D(8,7,12,11)    =     -0.471445     0.000004    -0.569908    -1.041353
	   97 D(8,9,10,11)    =     -0.855057     0.000006     1.455339     0.600282
	   98 D(8,9,10,13)    =   -178.855718     0.000004     1.270784  -177.584934
	   99 D(9,8,7,12)     =      0.378297     0.000004     1.269378     1.647675
	  100 D(9,10,11,12)   =      0.763203     0.000001    -0.660559     0.102644
	  101 D(9,10,11,20)   =   -178.405715     0.000004     0.329837  -178.075878
	  102 *D(9,10,13,14)  =   -115.936717    -0.000000     0.000000  -115.936717
	  103 D(10,9,8,18)    =   -179.867627    -0.000000     0.092107  -179.775520
	  104 *D(10,13,14,21) =    -65.443807    -0.000000     0.000000   -65.443807
	  105 D(10,13,14,22)  =     54.916587     0.000064    -2.654540    52.262047
	  106 D(10,13,14,23)  =    174.663466     0.000016     1.292667   175.956133
	  107 D(11,10,9,17)   =    178.980221     0.000008     0.586122   179.566342
	  108 *D(11,10,13,14) =     66.039410    -0.000000    -0.000000    66.039410
	  109 D(11,12,1,19)   =      0.683323    -0.000003     0.699052     1.382375
	  110 D(12,1,2,15)    =   -179.725433    -0.000001    -0.083661  -179.809094
	  111 D(12,7,6,16)    =    179.555673     0.000001    -0.097884   179.457789
	  112 D(12,7,8,18)    =   -179.467552    -0.000005    -0.461151  -179.928703
	  113 D(12,11,10,13)  =    178.883223    -0.000005    -0.453463   178.429760
	  114 D(13,10,9,17)   =      0.979560     0.000006     0.401566     1.381126
	  115 D(13,10,11,20)  =     -0.285695    -0.000003     0.536933     0.251238
	  116 D(15,2,1,19)    =     -0.056704    -0.000002    -1.614450    -1.671154
	  117 D(17,9,8,18)    =      0.292972    -0.000001     1.050016     1.342987
	 ---------------------------------------------------------------------------
	Successfully symmetrized geometry.

  ==> Convergence Check <==

  Measures of convergence in internal coordinates in au.
  Criteria marked as inactive (o), active & met (*), and active & unmet ( ).
  --------------------------------------------------------------------------------------------- ~
   Step     Total Energy     Delta E     MAX Force     RMS Force      MAX Disp      RMS Disp    ~
  --------------------------------------------------------------------------------------------- ~
    Convergence Criteria             o    2.50e-03 *    1.70e-03 *    1.00e-02 *    6.70e-03 *  ~
  --------------------------------------------------------------------------------------------- ~
      1   -1188.11225319   -1.19e+03 o    3.01e-02      6.82e-03      6.50e-01      1.71e-01    ~
  ---------------------------------------------------------------------------------------------

	Writing optimization data to binary file.
	Structure for next step:
	Cartesian Geometry (in Angstrom)
	    N    -0.5158476987  -1.7833169049  -0.0447976629
	    C    -1.8842857200  -1.8879585181   0.6187267295
	    C    -2.6303503488  -0.5817285379   1.6541027933
	    F    -4.0705619205  -0.0161977811   1.0379130880
	    F    -2.8653489086  -1.1218732982   3.0685680578
	    C    -1.5639505766   0.6559139120   1.8234542418
	    C    -0.1114591428   0.5613642782   1.0105071002
	    C     0.8908681733   1.6441237419   1.1042848538
	    C     2.2569216120   1.5847289447   0.3419722958
	    C     2.8116448138   0.3665578329  -0.6116630603
	    C     1.8273609745  -0.7330911229  -0.6967766059
	    C     0.4477175433  -0.6646792684   0.0581795906
	    S     4.5945503862   0.2417570399  -1.5477822262
	    C     4.0098618972   0.2480518696  -3.6233443037
	    O    -2.6358084837  -2.9224036743   0.4546221629
	    O    -2.1103593365   1.6710000089   2.6683903746
	    H     3.0163349490   2.4437329432   0.4235252910
	    H     0.4418980293   2.5826558563   1.8456020539
	    H    -0.0654417714  -2.6622682515  -0.7203094245
	    H     2.2715631164  -1.7002702486  -1.4057719625
	    H     3.3936039385  -0.7191785701  -3.8944893200
	    H     3.2111352726   1.2499852520  -3.9629749176
	    H     5.0260530374   0.2569481892  -4.3049077536
			--------------------------
			 OPTKING Finished Execution 
			--------------------------

    Structure for next step:
    Molecular point group: c1
    Full point group: C1

    Geometry (in Angstrom), charge = 0, multiplicity = 1:

    N           -0.606666581514    -1.605972155862    -0.398253997645
    C           -1.975104608157    -1.710613769492     0.265270397359
    C           -2.721169239879    -0.404383784127     1.300646465267
    F           -4.161380817308     0.161146974895     0.684456757508
    F           -2.956167800645    -0.944528546565     2.715111735343
    C           -1.654769463487     0.833258670680     1.469997914465
    C           -0.202278024057     0.738709036457     0.657050769664
    C            0.800049295968     1.821468504444     0.750828523659
    C            2.166102740110     1.762073706998    -0.011484037348
    C            2.720825944031     0.543902590406    -0.965119397259
    C            1.736542100912    -0.555746369699    -1.050232943193
    C            0.356898664247    -0.487334514926    -0.295276743739
    S            4.503731523482     0.419101796920    -1.901238566844
    C            3.919043032212     0.425396626640    -3.976800652516
    O           -2.726627374799    -2.745058929709     0.101165830132
    O           -2.201178225607     1.848344771574     2.314934050563
    H            2.925516080077     2.621077708847     0.070068958163
    H            0.351079150278     2.760000622516     1.492145726610
    H           -0.156260652416    -2.484923505936    -1.073765761856
    H            2.180744244560    -1.522925499172    -1.759228302556
    H            3.302785071026    -0.541833816831    -4.247945669830
    H            3.120316404445     1.427330012951    -4.316431267658
    H            4.935234176353     0.434292946294    -4.658364105062

gradient() will perform analytic gradient computation.

*** tstart() called on cpu-spot-dy-c5n2xlarge-1
*** at Tue Jun 22 01:13:45 2021

   => Loading Basis Set <=

    Name: 6-31+G*
    Role: ORBITAL
    Keyword: BASIS
    atoms 1             entry N          line   138 file /fsx/users/francis/anaconda3/envs/poltype-dev/share/psi4/basis/6-31pgs.gbs 
    atoms 2-3, 6-12, 14 entry C          line   119 file /fsx/users/francis/anaconda3/envs/poltype-dev/share/psi4/basis/6-31pgs.gbs 
    atoms 4-5           entry F          line   176 file /fsx/users/francis/anaconda3/envs/poltype-dev/share/psi4/basis/6-31pgs.gbs 
    atoms 13            entry S          line   344 file /fsx/users/francis/anaconda3/envs/poltype-dev/share/psi4/basis/6-31pgs.gbs 
    atoms 15-16         entry O          line   157 file /fsx/users/francis/anaconda3/envs/poltype-dev/share/psi4/basis/6-31pgs.gbs 
    atoms 17-23         entry H          line    46 file /fsx/users/francis/anaconda3/envs/poltype-dev/share/psi4/basis/6-31pgs.gbs 


         ---------------------------------------------------------
                                   SCF
               by Justin Turney, Rob Parrish, Andy Simmonett
                          and Daniel G. A. Smith
                              RKS Reference
                        8 Threads,  15258 MiB Core
         ---------------------------------------------------------

  ==> Geometry <==

    Molecular point group: c1
    Full point group: C1

    Geometry (in Angstrom), charge = 0, multiplicity = 1:

       Center              X                  Y                   Z               Mass       
    ------------   -----------------  -----------------  -----------------  -----------------
         N           -0.606666581514    -1.605972155862    -0.398253997645    14.003074004430
         C           -1.975104608157    -1.710613769492     0.265270397359    12.000000000000
         C           -2.721169239879    -0.404383784127     1.300646465267    12.000000000000
         F           -4.161380817308     0.161146974895     0.684456757508    18.998403162730
         F           -2.956167800645    -0.944528546565     2.715111735343    18.998403162730
         C           -1.654769463487     0.833258670680     1.469997914465    12.000000000000
         C           -0.202278024057     0.738709036457     0.657050769664    12.000000000000
         C            0.800049295968     1.821468504444     0.750828523659    12.000000000000
         C            2.166102740110     1.762073706998    -0.011484037348    12.000000000000
         C            2.720825944031     0.543902590406    -0.965119397259    12.000000000000
         C            1.736542100912    -0.555746369699    -1.050232943193    12.000000000000
         C            0.356898664247    -0.487334514926    -0.295276743739    12.000000000000
         S            4.503731523482     0.419101796920    -1.901238566844    31.972071174400
         C            3.919043032212     0.425396626640    -3.976800652516    12.000000000000
         O           -2.726627374799    -2.745058929709     0.101165830132    15.994914619570
         O           -2.201178225607     1.848344771574     2.314934050563    15.994914619570
         H            2.925516080077     2.621077708847     0.070068958163     1.007825032230
         H            0.351079150278     2.760000622516     1.492145726610     1.007825032230
         H           -0.156260652416    -2.484923505936    -1.073765761856     1.007825032230
         H            2.180744244560    -1.522925499172    -1.759228302556     1.007825032230
         H            3.302785071026    -0.541833816831    -4.247945669830     1.007825032230
         H            3.120316404445     1.427330012951    -4.316431267658     1.007825032230
         H            4.935234176353     0.434292946294    -4.658364105062     1.007825032230

  Running in c1 symmetry.

  Rotational constants: A =      0.02982  B =      0.00652  C =      0.00575 [cm^-1]
  Rotational constants: A =    893.91055  B =    195.49837  C =    172.33576 [MHz]
  Nuclear repulsion = 1052.609883132441382

  Charge       = 0
  Multiplicity = 1
  Electrons    = 124
  Nalpha       = 62
  Nbeta        = 62

  ==> Algorithm <==

  SCF Algorithm Type is DF.
  DIIS enabled.
  MOM disabled.
  Fractional occupation disabled.
  Guess Type is READ.
  Energy threshold   = 1.00e-08
  Density threshold  = 1.00e-08
  Integral threshold = 0.00e+00

  ==> Primary Basis <==

  Basis Set: 6-31+G*
    Blend: 6-31+G*
    Number of shells: 144
    Number of basis function: 322
    Number of Cartesian functions: 322
    Spherical Harmonics?: false
    Max angular momentum: 2

  ==> DFT Potential <==

   => Composite Functional: WB97X-D <= 

    wB97X-D Hyb-GGA Exchange-Correlation Functional

    J.-D. Chai and M. Head-Gordon, Phys. Chem. Chem. Phys. 10, 6615 (2008)

    Deriv               =              1
    GGA                 =           TRUE
    Meta                =          FALSE

    Exchange Hybrid     =           TRUE
    MP2 Hybrid          =          FALSE

   => Exchange-Correlation Functionals <=

    1.0000   wB97D range-separated functional

   => Exact (HF) Exchange <=

    0.7780            HF,LR [omega = 0.2000]
    0.2220               HF 

   => Molecular Quadrature <=

    Radial Scheme          =       TREUTLER
    Pruning Scheme         =           FLAT
    Nuclear Scheme         =       TREUTLER

    BS radius alpha        =              1
    Pruning alpha          =              1
    Radial Points          =             75
    Spherical Points       =            302
    Total Points           =         520866
    Total Blocks           =           3869
    Max Points             =            256
    Max Functions          =            275

   => WB97X-D: Empirical Dispersion <=

    Chai and Head-Gordon Dispersion Correction
    Chai, J.-D.; Head-Gordon, M. (2010), J. Chem. Phys., 132: 6615-6620

        s6 =       1.000000

   => Loading Basis Set <=

    Name: (6-31+G* AUX)
    Role: JKFIT
    Keyword: DF_BASIS_SCF
    atoms 1             entry N          line   252 file /fsx/users/francis/anaconda3/envs/poltype-dev/share/psi4/basis/heavy-aug-cc-pvdz-jkfit.gbs 
    atoms 2-3, 6-12, 14 entry C          line   194 file /fsx/users/francis/anaconda3/envs/poltype-dev/share/psi4/basis/heavy-aug-cc-pvdz-jkfit.gbs 
    atoms 4-5           entry F          line   368 file /fsx/users/francis/anaconda3/envs/poltype-dev/share/psi4/basis/heavy-aug-cc-pvdz-jkfit.gbs 
    atoms 13            entry S          line   730 file /fsx/users/francis/anaconda3/envs/poltype-dev/share/psi4/basis/heavy-aug-cc-pvdz-jkfit.gbs 
    atoms 15-16         entry O          line   310 file /fsx/users/francis/anaconda3/envs/poltype-dev/share/psi4/basis/heavy-aug-cc-pvdz-jkfit.gbs 
    atoms 17-23         entry H          line   116 file /fsx/users/francis/anaconda3/envs/poltype-dev/share/psi4/basis/heavy-aug-cc-pvdz-jkfit.gbs 

   => Loading Basis Set <=

    Name: 6-31+G*
    Role: ORBITAL
    Keyword: BASIS
    atoms 1             entry N          line   138 file /fsx/users/francis/anaconda3/envs/poltype-dev/share/psi4/basis/6-31pgs.gbs 
    atoms 2-3, 6-12, 14 entry C          line   119 file /fsx/users/francis/anaconda3/envs/poltype-dev/share/psi4/basis/6-31pgs.gbs 
    atoms 4-5           entry F          line   176 file /fsx/users/francis/anaconda3/envs/poltype-dev/share/psi4/basis/6-31pgs.gbs 
    atoms 13            entry S          line   344 file /fsx/users/francis/anaconda3/envs/poltype-dev/share/psi4/basis/6-31pgs.gbs 
    atoms 15-16         entry O          line   157 file /fsx/users/francis/anaconda3/envs/poltype-dev/share/psi4/basis/6-31pgs.gbs 
    atoms 17-23         entry H          line    46 file /fsx/users/francis/anaconda3/envs/poltype-dev/share/psi4/basis/6-31pgs.gbs 

  Reading orbitals from file 180, no projection.

  ==> Pre-Iterations <==

   -------------------------------------------------------
    Irrep   Nso     Nmo     Nalpha   Nbeta   Ndocc  Nsocc
   -------------------------------------------------------
     A        322     322       0       0       0       0
   -------------------------------------------------------
    Total     322     322      62      62      62       0
   -------------------------------------------------------

  ==> Integral Setup <==

  ==> DiskDFJK: Density-Fitted J/K Matrices <==

    J tasked:                  Yes
    K tasked:                  Yes
    wK tasked:                 Yes
    Omega:               2.000E-01
    OpenMP threads:              8
    Integrals threads:           8
    Memory [MiB]:             8649
    Algorithm:                Core
    Integral Cache:           NONE
    Schwarz Cutoff:          1E-12
    Fitting Condition:       1E-10

   => Auxiliary Basis Set <=

  Basis Set: (6-31+G* AUX)
    Blend: HEAVY-AUG-CC-PVDZ-JKFIT
    Number of shells: 523
    Number of basis function: 1840
    Number of Cartesian functions: 1840
    Spherical Harmonics?: false
    Max angular momentum: 3

  Cached 100.0% of DFT collocation blocks in 2.729 [GiB].

  Minimum eigenvalue in the overlap matrix is 2.0997505769E-06.
  Using Symmetric Orthogonalization.

  SCF Guess: Orbitals guess was supplied from a previous computation.

  ==> Iterations <==

                           Total Energy        Delta E     RMS |[F,P]|

   @DF-RKS iter   0: -1186.24620286573668   -1.18625e+03   2.17085e-02 
   @DF-RKS iter   1: -1181.02958522584413    5.21662e+00   9.40450e-03 DIIS
   @DF-RKS iter   2: -1006.50829815445752    1.74521e+02   3.50741e-02 DIIS
   @DF-RKS iter   3: -1183.05476572120574   -1.76546e+02   8.16230e-03 DIIS
   @DF-RKS iter   4: -1186.84307669243981   -3.78831e+00   4.08069e-03 DIIS
   @DF-RKS iter   5: -1187.51929256730091   -6.76216e-01   1.35182e-03 DIIS
   @DF-RKS iter   6: -1187.57346951002023   -5.41769e-02   7.64024e-04 DIIS
   @DF-RKS iter   7: -1187.59563520016764   -2.21657e-02   2.57532e-04 DIIS
   @DF-RKS iter   8: -1187.59883444506931   -3.19924e-03   1.18595e-04 DIIS
   @DF-RKS iter   9: -1187.59972872610251   -8.94281e-04   4.40297e-05 DIIS
   @DF-RKS iter  10: -1187.59997999246161   -2.51266e-04   2.22828e-05 DIIS
   @DF-RKS iter  11: -1187.60009147220171   -1.11480e-04   1.08229e-05 DIIS
   @DF-RKS iter  12: -1187.60011128819860   -1.98160e-05   5.87738e-06 DIIS
   @DF-RKS iter  13: -1187.60011673812596   -5.44993e-06   2.38983e-06 DIIS
   @DF-RKS iter  14: -1187.60011737462946   -6.36504e-07   1.35573e-06 DIIS
   @DF-RKS iter  15: -1187.60011762637441   -2.51745e-07   6.45254e-07 DIIS
   @DF-RKS iter  16: -1187.60011771835457   -9.19802e-08   3.35799e-07 DIIS
   @DF-RKS iter  17: -1187.60011773255951   -1.42049e-08   1.34069e-07 DIIS
   @DF-RKS iter  18: -1187.60011773889732   -6.33781e-09   7.68068e-08 DIIS
   @DF-RKS iter  19: -1187.60011773953420   -6.36874e-10   5.20526e-08 DIIS
   @DF-RKS iter  20: -1187.60011773989618   -3.61979e-10   2.76889e-08 DIIS
   @DF-RKS iter  21: -1187.60011773995348   -5.72982e-11   9.06005e-09 DIIS
  Energy and wave function converged.


  ==> Post-Iterations <==

    Orbital Energies [Eh]
    ---------------------

    Doubly Occupied:                                                      

       1A    -89.112996     2A    -24.882406     3A    -24.859399  
       4A    -19.335434     5A    -19.329156     6A    -14.582697  
       7A    -10.570811     8A    -10.517277     9A    -10.500044  
      10A    -10.470616    11A    -10.438563    12A    -10.424942  
      13A    -10.418951    14A    -10.413239    15A    -10.411213  
      16A    -10.398708    17A     -8.122880    18A     -6.074205  
      19A     -6.070731    20A     -6.062006    21A     -1.313996  
      22A     -1.264084    23A     -1.164249    24A     -1.097780  
      25A     -1.051486    26A     -0.938909    27A     -0.897898  
      28A     -0.864823    29A     -0.843480    30A     -0.826825  
      31A     -0.769117    32A     -0.748324    33A     -0.725402  
      34A     -0.710862    35A     -0.654689    36A     -0.629596  
      37A     -0.614981    38A     -0.608690    39A     -0.590660  
      40A     -0.571798    41A     -0.559190    42A     -0.547596  
      43A     -0.534158    44A     -0.530670    45A     -0.520494  
      46A     -0.516610    47A     -0.513245    48A     -0.502489  
      49A     -0.497960    50A     -0.496639    51A     -0.488621  
      52A     -0.481979    53A     -0.474738    54A     -0.455915  
      55A     -0.448531    56A     -0.439186    57A     -0.415471  
      58A     -0.409431    59A     -0.379690    60A     -0.378580  
      61A     -0.354137    62A     -0.317351  

    Virtual:                                                              

      63A     -0.095544    64A     -0.028517    65A     -0.021510  
      66A     -0.015689    67A      0.002821    68A      0.008181  
      69A      0.019244    70A      0.028367    71A      0.039584  
      72A      0.062958    73A      0.065766    74A      0.077990  
      75A      0.079117    76A      0.087096    77A      0.089559  
      78A      0.093831    79A      0.099619    80A      0.105082  
      81A      0.106263    82A      0.111472    83A      0.115365  
      84A      0.117100    85A      0.124941    86A      0.127377  
      87A      0.131610    88A      0.136440    89A      0.143392  
      90A      0.147107    91A      0.151326    92A      0.153968  
      93A      0.157235    94A      0.158074    95A      0.167097  
      96A      0.171763    97A      0.175961    98A      0.177860  
      99A      0.179206   100A      0.184068   101A      0.188106  
     102A      0.191488   103A      0.200978   104A      0.204664  
     105A      0.209135   106A      0.217086   107A      0.219585  
     108A      0.227003   109A      0.230524   110A      0.238495  
     111A      0.238997   112A      0.248340   113A      0.249806  
     114A      0.252818   115A      0.259862   116A      0.269259  
     117A      0.271858   118A      0.282813   119A      0.285042  
     120A      0.287843   121A      0.293603   122A      0.295573  
     123A      0.302770   124A      0.308181   125A      0.319531  
     126A      0.322902   127A      0.327390   128A      0.329255  
     129A      0.336710   130A      0.342548   131A      0.358979  
     132A      0.361550   133A      0.363468   134A      0.371412  
     135A      0.380339   136A      0.387017   137A      0.391955  
     138A      0.401022   139A      0.402567   140A      0.408019  
     141A      0.416588   142A      0.422657   143A      0.431148  
     144A      0.439669   145A      0.446540   146A      0.456841  
     147A      0.469464   148A      0.476111   149A      0.488571  
     150A      0.500783   151A      0.510583   152A      0.514072  
     153A      0.528804   154A      0.557190   155A      0.564610  
     156A      0.569373   157A      0.616912   158A      0.638633  
     159A      0.669286   160A      0.675402   161A      0.687603  
     162A      0.705135   163A      0.715128   164A      0.727989  
     165A      0.738086   166A      0.747632   167A      0.764272  
     168A      0.771351   169A      0.775017   170A      0.798455  
     171A      0.805715   172A      0.810028   173A      0.818469  
     174A      0.829168   175A      0.838389   176A      0.847274  
     177A      0.865440   178A      0.871685   179A      0.891231  
     180A      0.899720   181A      0.913971   182A      0.925977  
     183A      0.935462   184A      0.943862   185A      0.959880  
     186A      0.965718   187A      0.978792   188A      0.988894  
     189A      1.003652   190A      1.023502   191A      1.033625  
     192A      1.035564   193A      1.051915   194A      1.065204  
     195A      1.070705   196A      1.097797   197A      1.118215  
     198A      1.125627   199A      1.151737   200A      1.166719  
     201A      1.193147   202A      1.222696   203A      1.239850  
     204A      1.277717   205A      1.280411   206A      1.284299  
     207A      1.289670   208A      1.293731   209A      1.314889  
     210A      1.320443   211A      1.329896   212A      1.370964  
     213A      1.377344   214A      1.393329   215A      1.408886  
     216A      1.418113   217A      1.429964   218A      1.438227  
     219A      1.446313   220A      1.469331   221A      1.478904  
     222A      1.480775   223A      1.504828   224A      1.514499  
     225A      1.525702   226A      1.533114   227A      1.538665  
     228A      1.566682   229A      1.577534   230A      1.581470  
     231A      1.598238   232A      1.617182   233A      1.623937  
     234A      1.646447   235A      1.668161   236A      1.685855  
     237A      1.707998   238A      1.708603   239A      1.731837  
     240A      1.734006   241A      1.742618   242A      1.766404  
     243A      1.775348   244A      1.803079   245A      1.809251  
     246A      1.814158   247A      1.830918   248A      1.832997  
     249A      1.868573   250A      1.873423   251A      1.885795  
     252A      1.894715   253A      1.909449   254A      1.917565  
     255A      1.932018   256A      1.944497   257A      1.950009  
     258A      1.963171   259A      1.965773   260A      1.968344  
     261A      1.976155   262A      1.995317   263A      1.999999  
     264A      2.016273   265A      2.024908   266A      2.053080  
     267A      2.064282   268A      2.070159   269A      2.076767  
     270A      2.085696   271A      2.114848   272A      2.149057  
     273A      2.168284   274A      2.177920   275A      2.180069  
     276A      2.205531   277A      2.240361   278A      2.253001  
     279A      2.271128   280A      2.286278   281A      2.310149  
     282A      2.323557   283A      2.348612   284A      2.381124  
     285A      2.411060   286A      2.425272   287A      2.434249  
     288A      2.450330   289A      2.473114   290A      2.515689  
     291A      2.550240   292A      2.566089   293A      2.596042  
     294A      2.647812   295A      2.678336   296A      2.737927  
     297A      2.759223   298A      2.796229   299A      2.871955  
     300A      2.941267   301A      2.975593   302A      2.992372  
     303A      3.050479   304A      3.073222   305A      3.173317  
     306A      3.187932   307A      3.977157   308A      4.033026  
     309A      4.136946   310A      4.178544   311A      4.216035  
     312A      4.278552   313A      4.308689   314A      4.366670  
     315A      4.372960   316A      4.441679   317A      4.464079  
     318A      4.543230   319A      4.623557   320A      4.689380  
     321A      5.591766   322A      6.497059  

    Final Occupation by Irrep:
              A 
    DOCC [    62 ]

  @DF-RKS Final Energy: -1187.60011773995348

   => Energetics <=

    Nuclear Repulsion Energy =           1052.6098831324413823
    One-Electron Energy =               -3719.8940657947646287
    Two-Electron Energy =                1567.8708586444431603
    DFT Exchange-Correlation Energy =     -88.1737599346264886
    Empirical Dispersion Energy =          -0.0130337874465967
    VV10 Nonlocal Energy =                  0.0000000000000000
    Total Energy =                      -1187.6001177399534754

Computation Completed


Properties will be evaluated at   0.000000,   0.000000,   0.000000 [a0]

Properties computed using the SCF density matrix

  Nuclear Dipole Moment: [e a0]
     X:    22.4290      Y:     3.2750      Z:   -16.8316

  Electronic Dipole Moment: [e a0]
     X:   -19.4322      Y:    -3.4906      Z:    14.4974

  Dipole Moment: [e a0]
     X:     2.9968      Y:    -0.2155      Z:    -2.3342     Total:     3.8047

  Dipole Moment: [D]
     X:     7.6170      Y:    -0.5478      Z:    -5.9330     Total:     9.6706


*** tstop() called on cpu-spot-dy-c5n2xlarge-1 at Tue Jun 22 01:15:13 2021
Module time:
	user time   =     674.96 seconds =      11.25 minutes
	system time =       9.79 seconds =       0.16 minutes
	total time  =         88 seconds =       1.47 minutes
Total time:
	user time   =    1369.41 seconds =      22.82 minutes
	system time =      23.34 seconds =       0.39 minutes
	total time  =        185 seconds =       3.08 minutes

*** tstart() called on cpu-spot-dy-c5n2xlarge-1
*** at Tue Jun 22 01:15:13 2021


         ------------------------------------------------------------
                                   SCF GRAD                          
                          Rob Parrish, Justin Turney,                
                       Andy Simmonett, and Alex Sokolov              
         ------------------------------------------------------------

  ==> Geometry <==

    Molecular point group: c1
    Full point group: C1

    Geometry (in Angstrom), charge = 0, multiplicity = 1:

       Center              X                  Y                   Z               Mass       
    ------------   -----------------  -----------------  -----------------  -----------------
         N           -0.606666581514    -1.605972155862    -0.398253997645    14.003074004430
         C           -1.975104608157    -1.710613769492     0.265270397359    12.000000000000
         C           -2.721169239879    -0.404383784127     1.300646465267    12.000000000000
         F           -4.161380817308     0.161146974895     0.684456757508    18.998403162730
         F           -2.956167800645    -0.944528546565     2.715111735343    18.998403162730
         C           -1.654769463487     0.833258670680     1.469997914465    12.000000000000
         C           -0.202278024057     0.738709036457     0.657050769664    12.000000000000
         C            0.800049295968     1.821468504444     0.750828523659    12.000000000000
         C            2.166102740110     1.762073706998    -0.011484037348    12.000000000000
         C            2.720825944031     0.543902590406    -0.965119397259    12.000000000000
         C            1.736542100912    -0.555746369699    -1.050232943193    12.000000000000
         C            0.356898664247    -0.487334514926    -0.295276743739    12.000000000000
         S            4.503731523482     0.419101796920    -1.901238566844    31.972071174400
         C            3.919043032212     0.425396626640    -3.976800652516    12.000000000000
         O           -2.726627374799    -2.745058929709     0.101165830132    15.994914619570
         O           -2.201178225607     1.848344771574     2.314934050563    15.994914619570
         H            2.925516080077     2.621077708847     0.070068958163     1.007825032230
         H            0.351079150278     2.760000622516     1.492145726610     1.007825032230
         H           -0.156260652416    -2.484923505936    -1.073765761856     1.007825032230
         H            2.180744244560    -1.522925499172    -1.759228302556     1.007825032230
         H            3.302785071026    -0.541833816831    -4.247945669830     1.007825032230
         H            3.120316404445     1.427330012951    -4.316431267658     1.007825032230
         H            4.935234176353     0.434292946294    -4.658364105062     1.007825032230

  Nuclear repulsion = 1052.609883132441382

  ==> Basis Set <==

  Basis Set: 6-31+G*
    Blend: 6-31+G*
    Number of shells: 144
    Number of basis function: 322
    Number of Cartesian functions: 322
    Spherical Harmonics?: false
    Max angular momentum: 2

  ==> DFJKGrad: Density-Fitted SCF Gradients <==

    Gradient:                    1
    J tasked:                  Yes
    K tasked:                  Yes
    wK tasked:                 Yes
    Omega:               2.000E-01
    OpenMP threads:              8
    Integrals threads:           8
    Memory [MiB]:            11444
    Schwarz Cutoff:          0E+00
    Fitting Condition:       1E-10

   => Auxiliary Basis Set <=

  Basis Set: (6-31+G* AUX)
    Blend: HEAVY-AUG-CC-PVDZ-JKFIT
    Number of shells: 523
    Number of basis function: 1840
    Number of Cartesian functions: 1840
    Spherical Harmonics?: false
    Max angular momentum: 3

  ==> DFT Potential <==

   => Composite Functional: WB97X-D <= 

    wB97X-D Hyb-GGA Exchange-Correlation Functional

    J.-D. Chai and M. Head-Gordon, Phys. Chem. Chem. Phys. 10, 6615 (2008)

    Deriv               =              1
    GGA                 =           TRUE
    Meta                =          FALSE

    Exchange Hybrid     =           TRUE
    MP2 Hybrid          =          FALSE

   => Exchange-Correlation Functionals <=

    1.0000   wB97D range-separated functional

   => Exact (HF) Exchange <=

    0.7780            HF,LR [omega = 0.2000]
    0.2220               HF 

   => Molecular Quadrature <=

    Radial Scheme          =       TREUTLER
    Pruning Scheme         =           FLAT
    Nuclear Scheme         =       TREUTLER

    BS radius alpha        =              1
    Pruning alpha          =              1
    Radial Points          =             75
    Spherical Points       =            302
    Total Points           =         520866
    Total Blocks           =           3869
    Max Points             =            256
    Max Functions          =            275


  -Total Gradient:
     Atom            X                  Y                   Z
    ------   -----------------  -----------------  -----------------
       1       -0.017952342578     0.014311272200     0.014420824757
       2        0.053376577044     0.075144428355     0.022284897894
       3       -0.003572289480    -0.003790649393    -0.014690638683
       4       -0.097308406854     0.043259412750    -0.039994249309
       5       -0.008461660352    -0.030184287965     0.099244542046
       6        0.059396388541    -0.083265569250    -0.064575965306
       7       -0.045003407763     0.014304387896     0.027752441062
       8       -0.003862186882     0.001913626846     0.006853111207
       9        0.002134052903     0.023316891421     0.010251409468
      10        0.071442713439    -0.021037007142    -0.044768438566
      11       -0.002577781698    -0.000816405055    -0.003103109600
      12        0.026914231456    -0.013439141885    -0.020778751216
      13        0.074658990946    -0.009614985582     0.027730919186
      14        0.020007397752    -0.020059294174     0.022529467040
      15       -0.083597552418    -0.102074798940    -0.013551593382
      16       -0.093101921723     0.127390988890     0.117277735889
      17        0.030860370158     0.024671199401    -0.002080089791
[...]
	 ---------------------------------------------------------------------------
	   Coordinate                Previous        Force       Change         New 
	   ----------                --------       ------       ------       ------
	    1 R(1,2)          =      1.370785    -0.004442    -0.000774     1.370011
	    2 R(1,12)         =      1.397521     0.001548     0.000351     1.397872
	    3 R(1,19)         =      1.013226    -0.000708    -0.000185     1.013041
	    4 R(2,3)          =      1.547330     0.000390    -0.000064     1.547266
	    5 R(2,15)         =      1.207529     0.009838     0.000923     1.208452
	    6 R(3,4)          =      1.361249    -0.006200    -0.001244     1.360005
	    7 R(3,5)          =      1.354019    -0.013666    -0.002546     1.351473
	    8 R(3,6)          =      1.556185    -0.004303    -0.001616     1.554569
	    9 R(6,7)          =      1.472670    -0.002509    -0.000864     1.471806
	   10 R(6,16)         =      1.209149     0.000416    -0.000021     1.209128
	   11 R(7,8)          =      1.398917     0.000574     0.000103     1.399019
	   12 R(7,12)         =      1.403461     0.001642     0.000362     1.403823
	   13 R(8,9)          =      1.385501    -0.001899    -0.000381     1.385120
	   14 R(8,18)         =      1.084931     0.001795     0.000500     1.085431
	   15 R(9,10)         =      1.401176    -0.000433    -0.000043     1.401133
	   16 R(9,17)         =      1.084577     0.001322     0.000238     1.084815
	   17 R(10,11)        =      1.393585     0.000023     0.000038     1.393623
	   18 R(10,13)        =      1.783112     0.001239     0.000421     1.783533
	   19 R(11,12)        =      1.395070    -0.001053    -0.000172     1.394898
	   20 R(11,20)        =      1.086058     0.002986     0.000738     1.086795
	   21 R(13,14)        =      1.815103     0.009172     0.003262     1.818365
	   22 R(14,21)        =      1.092694    -0.001036    -0.000159     1.092535
	   23 R(14,22)        =      1.091001     0.002843     0.000868     1.091869
	   24 R(14,23)        =      1.092834     0.000062     0.000108     1.092943
	   25 B(1,2,3)        =    115.765194     0.000031     0.047583   115.812777
	   26 B(1,2,15)       =    123.009766    -0.000018    -0.045045   122.964722
	   27 B(1,12,7)       =    121.082882    -0.000006    -0.001074   121.081807
	   28 B(1,12,11)      =    119.131398     0.000002    -0.008091   119.123307
	   29 B(2,1,12)       =    127.205246    -0.000016    -0.051452   127.153794
	   30 B(2,1,19)       =    114.416141     0.000020     0.054171   114.470313
	   31 B(2,3,4)        =    106.839816     0.000003     0.048555   106.888370
	   32 B(2,3,5)        =    107.677739     0.000004    -0.022606   107.655133
	   33 B(2,3,6)        =    117.956434    -0.000027    -0.039666   117.916768
	   34 B(3,2,15)       =    121.221671    -0.000014    -0.006185   121.215486
	   35 B(3,6,7)        =    116.945362     0.000028     0.084532   117.029894
	   36 B(3,6,16)       =    118.398595    -0.000005    -0.007847   118.390748
	   37 B(4,3,5)        =    108.434732    -0.000006    -0.074401   108.360331
	   38 B(4,3,6)        =    107.253972     0.000007     0.007494   107.261466
	   39 B(5,3,6)        =    108.367558     0.000020     0.073408   108.440966
	   40 B(6,7,8)        =    119.880804     0.000021     0.057390   119.938194
	   41 B(6,7,12)       =    120.745223    -0.000010    -0.044575   120.700648
	   42 B(7,6,16)       =    124.646300    -0.000023    -0.074672   124.571628
	   43 B(7,8,9)        =    120.999189     0.000001    -0.022596   120.976593
	   44 B(7,8,18)       =    118.054113    -0.000006     0.002035   118.056148
	   45 B(7,12,11)      =    119.777794     0.000004     0.010091   119.787885
	   46 B(8,7,12)       =    119.372484    -0.000011    -0.012712   119.359772
	   47 B(8,9,10)       =    119.394991     0.000013     0.053102   119.448093
	   48 B(8,9,17)       =    120.808997    -0.000004    -0.024256   120.784741
	   49 B(9,8,18)       =    120.942570     0.000005     0.020932   120.963503
	   50 B(9,10,11)      =    120.211673    -0.000009    -0.030181   120.181492
	   51 B(9,10,13)      =    119.442432     0.000002     0.003552   119.445984
	   52 B(10,9,17)      =    119.794545    -0.000008    -0.028547   119.765997
	   53 B(10,11,12)     =    120.229079     0.000003     0.003398   120.232478
	   54 B(10,11,20)     =    119.891865    -0.000007    -0.023555   119.868310
	   55 B(10,13,14)     =    100.234872    -0.000014    -0.070190   100.164682
	   56 B(11,10,13)     =    120.316249     0.000007     0.026646   120.342895
	   57 B(12,1,19)      =    118.377521    -0.000004    -0.004094   118.373426
	   58 B(12,11,20)     =    119.874197     0.000004     0.019277   119.893475
	   59 B(13,14,21)     =    111.838403    -0.000011    -0.044555   111.793849
	   60 B(13,14,22)     =    110.879921    -0.000013    -0.044088   110.835833
	   61 B(13,14,23)     =    106.542572    -0.000020    -0.084009   106.458563
	   62 B(21,14,22)     =    109.984891     0.000015     0.059363   110.044254
	   63 B(21,14,23)     =    108.524406     0.000016     0.059663   108.584069
	   64 B(22,14,23)     =    108.946714     0.000013     0.054246   109.000960
	   65 D(1,2,3,4)      =    115.462422    -0.000002    -0.138906   115.323516
	   66 D(1,2,3,5)      =   -128.227229    -0.000003    -0.211932  -128.439162
	   67 D(1,2,3,6)      =     -5.299949    -0.000000    -0.160970    -5.460919
	   68 D(1,12,7,6)     =     -0.357324     0.000000     0.030184    -0.327140
	   69 D(1,12,7,8)     =    179.198332     0.000000     0.046017   179.244349
	   70 D(1,12,11,10)   =    179.822658     0.000001    -0.004261   179.818397
	   71 D(1,12,11,20)   =     -0.980012    -0.000000    -0.074049    -1.054061
	   72 D(2,1,12,7)     =      1.674051    -0.000001    -0.189879     1.484171
	   73 D(2,1,12,11)    =   -179.352480    -0.000002    -0.127967  -179.480446
	   74 D(2,3,6,7)      =      6.428691    -0.000000     0.037310     6.466001
	   75 D(2,3,6,16)     =   -174.653589     0.000000     0.154788  -174.498802
	   76 D(3,2,1,12)     =      1.338312     0.000002     0.247783     1.586095
	   77 D(3,2,1,19)     =   -179.051356     0.000001     0.051881  -178.999475
	   78 D(3,6,7,8)      =    176.784693     0.000000     0.011479   176.796171
	   79 D(3,6,7,12)     =     -3.661899     0.000000     0.027089    -3.634809
	   80 D(4,3,2,15)     =    -63.889303     0.000000     0.148759   -63.740544
	   81 D(4,3,6,7)      =   -114.119421     0.000002    -0.005910  -114.125331
	   82 D(4,3,6,16)     =     64.798299     0.000002     0.111567    64.909867
	   83 D(5,3,2,15)     =     52.421046    -0.000001     0.075732    52.496778
	   84 D(5,3,6,7)      =    129.007079     0.000000     0.039517   129.046596
	   85 D(5,3,6,16)     =    -52.075201     0.000001     0.156994   -51.918206
	   86 D(6,3,2,15)     =    175.348326     0.000002     0.126695   175.475021
	   87 D(6,7,8,9)      =   -179.702729    -0.000001     0.010603  -179.692127
	   88 D(6,7,8,18)     =     -0.435033     0.000000     0.044464    -0.390570
	   89 D(6,7,12,11)    =   -179.324232     0.000000    -0.031950  -179.356182
	   90 D(7,8,9,10)     =     -0.738328    -0.000001    -0.015438    -0.753766
	   91 D(7,8,9,17)     =    178.820012     0.000001     0.031861   178.851874
	   92 D(7,12,1,19)    =   -177.922670    -0.000000     0.012582  -177.910088
	   93 D(7,12,11,10)   =     -1.190227     0.000001     0.056722    -1.133505
	   94 D(7,12,11,20)   =    178.007103    -0.000000    -0.013066   177.994037
	   95 D(8,7,6,16)     =     -2.058053    -0.000001    -0.114990    -2.173043
	   96 D(8,7,12,11)    =      0.231425     0.000001    -0.016117     0.215307
	   97 D(8,9,10,11)    =     -0.230150     0.000002     0.056316    -0.173834
	   98 D(8,9,10,13)    =   -178.256128     0.000002     0.055173  -178.200955
	   99 D(9,8,7,12)     =      0.737712    -0.000001    -0.004649     0.733062
	  100 D(9,10,11,12)   =      1.194960    -0.000003    -0.077229     1.117731
	  101 D(9,10,11,20)   =   -178.002228    -0.000001    -0.007804  -178.010031
	  102 *D(9,10,13,14)  =   -115.936717    -0.000000    -0.000000  -115.936717
	  103 D(10,9,8,18)    =   -179.984830    -0.000002    -0.050135  -180.034965
	  104 *D(10,13,14,21) =    -65.443807     0.000000     0.000000   -65.443807
	  105 D(10,13,14,22)  =     57.713848     0.000001     0.012810    57.726658
	  106 D(10,13,14,23)  =    176.126423    -0.000000     0.004118   176.130541
	  107 D(11,10,9,17)   =   -179.793037     0.000001     0.009490  -179.783546
	  108 *D(11,10,13,14) =     66.039410    -0.000000     0.000000    66.039410
	  109 D(11,12,1,19)   =      1.050799    -0.000001     0.074495     1.125294
	  110 D(12,1,2,15)    =   -179.322789    -0.000001    -0.045150  -179.367939
	  111 D(12,7,6,16)    =    177.495355    -0.000001    -0.099379   177.395976
	  112 D(12,7,8,18)    =   -179.994592     0.000000     0.029211  -179.965381
	  113 D(12,11,10,13)  =    179.203558    -0.000003    -0.076549   179.127009
	  114 D(13,10,9,17)   =      2.180985     0.000001     0.008348     2.189334
	  115 D(13,10,11,20)  =      0.006370    -0.000001    -0.006370     0.000000
	  116 D(15,2,1,19)    =      0.287543    -0.000002    -0.241052     0.046491
	  117 D(17,9,8,18)    =     -0.426490    -0.000000    -0.002836    -0.429326
	  118 R(1,X)          =     -0.525572    -0.001741    -0.000837    -0.526409
	  119 R(1,Y)          =     -1.563758    -0.000850    -0.000026    -1.563785
	  120 R(1,Z)          =     -0.377253     0.000342    -0.000509    -0.377762
	  121 R(2,X)          =     -1.758844     0.003018     0.001043    -1.757801
	  122 R(2,Y)          =     -1.792180     0.003678    -0.000015    -1.792194
	  123 R(2,Z)          =      0.175844     0.001814     0.001762     0.177606
	  124 R(3,X)          =     -2.333703    -0.000892     0.000196    -2.333508
	  125 R(3,Y)          =     -0.641680     0.001610     0.000525    -0.641155
	  126 R(3,Z)          =      1.036146     0.002668     0.000357     1.036503
	  127 R(4,X)          =     -3.452221     0.004111     0.001147    -3.451074
	  128 R(4,Y)          =     -0.195557    -0.001408    -0.000193    -0.195750
	  129 R(4,Z)          =      0.401409     0.005028     0.000843     0.402252
	  130 R(5,X)          =     -2.698928     0.000894    -0.000759    -2.699687
	  131 R(5,Y)          =     -1.164370     0.005337     0.001719    -1.162651
	  132 R(5,Z)          =      2.230622    -0.010646    -0.002300     2.228322
	  133 R(6,X)          =     -1.427477    -0.000753    -0.000414    -1.427891
	  134 R(6,Y)          =      0.595830    -0.003069    -0.000803     0.595027
	  135 R(6,Z)          =      1.298887    -0.001257    -0.000858     1.298030
	  136 R(7,X)          =     -0.139672    -0.002238    -0.000771    -0.140443
	  137 R(7,Y)          =      0.643280     0.000940     0.000256     0.643536
	  138 R(7,Z)          =      0.586100     0.001511     0.000355     0.586455
	  139 R(8,X)          =      0.692783    -0.000770    -0.000725     0.692059
	  140 R(8,Y)          =      1.759004     0.000734     0.000375     1.759380
	  141 R(8,Z)          =      0.724463     0.000143     0.000154     0.724617
	  142 R(9,X)          =      1.906326    -0.002534    -0.001129     1.905196
	  143 R(9,Y)          =      1.830679    -0.001091    -0.000266     1.830414
	  144 R(9,Z)          =      0.059790     0.000684     0.000140     0.059930
	  145 R(10,X)         =      2.310800    -0.000388    -0.000329     2.310471
	  146 R(10,Y)         =      0.761580    -0.000503    -0.000174     0.761406
	  147 R(10,Z)         =     -0.750593     0.001729     0.000493    -0.750100
	  148 R(11,X)         =      1.500582    -0.001479    -0.000723     1.499859
	  149 R(11,Y)         =     -0.364676     0.000335     0.000117    -0.364559
	  150 R(11,Z)         =     -0.881644     0.001023     0.000028    -0.881616
	  151 R(12,X)         =      0.270203    -0.000674    -0.000410     0.269793
	  152 R(12,Y)         =     -0.424819     0.000311     0.000006    -0.424813
	  153 R(12,Z)         =     -0.226839     0.000291     0.000241    -0.226598
	  154 R(13,X)         =      3.893235     0.002574     0.000844     3.894079
	  155 R(13,Y)         =      0.832172    -0.000467    -0.000195     0.831976
	  156 R(13,Z)         =     -1.569376     0.004756     0.001844    -1.567532
	  157 R(14,X)         =      3.358588    -0.001312    -0.000551     3.358037
	  158 R(14,Y)         =      0.845221    -0.000570    -0.000153     0.845068
	  159 R(14,Z)         =     -3.303902    -0.003644    -0.001138    -3.305041
	  160 R(15,X)         =     -2.377778    -0.002147    -0.000156    -2.377934
	  161 R(15,Y)         =     -2.814664    -0.004485    -0.000121    -2.814785
	  162 R(15,Z)         =      0.003879    -0.000144     0.000237     0.004115
	  163 R(16,X)         =     -1.829792     0.001066     0.000664    -1.829128
	  164 R(16,Y)         =      1.454263    -0.002021    -0.001319     1.452944
	  165 R(16,Z)         =      2.049405    -0.000809     0.000274     2.049679
	  166 R(17,X)         =      2.540621    -0.001264    -0.000788     2.539833
	  167 R(17,Y)         =      2.705351    -0.000396    -0.000248     2.705103
	  168 R(17,Z)         =      0.154266     0.000900     0.000419     0.154685
	  169 R(18,X)         =      0.354909    -0.001117    -0.000624     0.354285
	  170 R(18,Y)         =      2.572277     0.002093     0.000658     2.572935
	  171 R(18,Z)         =      1.358107     0.001286     0.000700     1.358807
	  172 R(19,X)         =     -0.175456    -0.001580    -0.000595    -0.176051
	  173 R(19,Y)         =     -2.323841     0.000093     0.000061    -2.323780
	  174 R(19,Z)         =     -0.948498     0.000442    -0.000149    -0.948647
	  175 R(20,X)         =      1.833828     0.000390    -0.000050     1.833778
	  176 R(20,Y)         =     -1.203918    -0.001683    -0.000423    -1.204341
	  177 R(20,Z)         =     -1.485085    -0.000512    -0.000177    -1.485262
	  178 R(21,X)         =      2.868684    -0.000657    -0.000457     2.868227
	  179 R(21,Y)         =     -0.090085    -0.000613    -0.000302    -0.090387
	  180 R(21,Z)         =     -3.585286    -0.000621    -0.000191    -3.585476
	  181 R(22,X)         =      2.693836    -0.002608    -0.000858     2.692978
	  182 R(22,Y)         =      1.687896     0.002665     0.000905     1.688801
	  183 R(22,Z)         =     -3.499569    -0.001163    -0.000378    -3.499946
	  184 R(23,X)         =      4.262614     0.000755     0.000283     4.262897
	  185 R(23,Y)         =      0.958865    -0.000355    -0.000201     0.958664
	  186 R(23,Z)         =     -3.907317    -0.000620    -0.000092    -3.907409
	 ---------------------------------------------------------------------------
	Successfully symmetrized geometry.

  ==> Convergence Check <==

  Measures of convergence in internal coordinates in au.
  Criteria marked as inactive (o), active & met (*), and active & unmet ( ).
  --------------------------------------------------------------------------------------------- ~
   Step     Total Energy     Delta E     MAX Force     RMS Force      MAX Disp      RMS Disp    ~
  --------------------------------------------------------------------------------------------- ~
    Convergence Criteria             o    2.50e-03 *    1.70e-03 *    1.00e-02 *    6.70e-03 *  ~
  --------------------------------------------------------------------------------------------- ~
      1   -1188.11939827   -1.19e+03 o    1.66e-03 *    2.76e-04 *    6.16e-03 *    1.42e-03 *  ~
  ---------------------------------------------------------------------------------------------


  **** Optimization is complete! (in 1 steps) ****

  ==> Optimization Summary <==

  Measures of convergence in internal coordinates in au.
  --------------------------------------------------------------------------------------------------------------- ~
   Step         Total Energy             Delta E       MAX Force       RMS Force        MAX Disp        RMS Disp  ~
  --------------------------------------------------------------------------------------------------------------- ~
      1   -1188.119398268939  -1188.119398268939      0.00165872      0.00027615      0.00616360      0.00142136  ~
  --------------------------------------------------------------------------------------------------------------- ~

	Writing optimization data to binary file.
	Final energy is  -1188.1193982689385
	Final (previous) structure:
	Cartesian Geometry (in Angstrom)
	    N    -0.5255717923  -1.5637583630  -0.3772529565
	    C    -1.7588437155  -1.7921795156   0.1758441540
	    C    -2.3337031021  -0.6416801964   1.0361460591
	    F    -3.4522214560  -0.1955574706   0.4014093141
	    F    -2.6989281800  -1.1643702915   2.2306223734
	    C    -1.4274767096   0.5958302050   1.2988870339
	    C    -0.1396722278   0.6432798952   0.5861000460
	    C     0.6927832467   1.7590043634   0.7244629363
	    C     1.9063255616   1.8306794162   0.0597895090
	    C     2.3107998914   0.7615796189  -0.7505926745
	    C     1.5005822727  -0.3646760261  -0.8816442495
	    C     0.2702025968  -0.4248187940  -0.2268394199
	    S     3.8932347278   0.8321716361  -1.5693761258
	    C     3.3585881000   0.8452211251  -3.3039024014
	    O    -2.3777775875  -2.8146637362   0.0038785900
	    O    -1.8297922083   1.4542628670   2.0494052514
	    H     2.5406208825   2.7053512468   0.1542657942
	    H     0.3549091931   2.5722767016   1.3581072339
	    H    -0.1754557944  -2.3238406059  -0.9484983324
	    H     1.8338280978  -1.2039183243  -1.4850849061
	    H     2.8686840367  -0.0900849474  -3.5852858553
	    H     2.6938356785   1.6878961818  -3.4995685376
	    H     4.2626137431   0.9588647447  -3.9073173211
	Saving final (previous) structure.
			--------------------------
			 OPTKING Finished Execution 
			--------------------------

    Final optimized geometry and variables:
    Molecular point group: c1
    Full point group: C1

    Geometry (in Angstrom), charge = 0, multiplicity = 1:

    N           -0.525571794372    -1.563758369103    -0.377252958026
    C           -1.758843722403    -1.792179522608     0.175844154719
    C           -2.333703111296    -0.641680198938     1.036146063182
    F           -3.452221469611    -0.195557471333     0.401409315673
    F           -2.698928190575    -1.164370296048     2.230622382126
    C           -1.427476715235     0.595830207315     1.298887038966
    C           -0.139672228352     0.643279897682     0.586100048307
    C            0.692783249380     1.759004370316     0.724462939194
    C            1.906325569124     1.830679423387     0.059789509267
    C            2.310799900526     0.761579621887    -0.750592677432
    C            1.500582278617    -0.364676027518    -0.881644252996
    C            0.270202597889    -0.424818795672    -0.226839420839
    S            3.893234743117     0.832171639336    -1.569376131996
    C            3.358588113152     0.845221128406    -3.303902414367
    O           -2.377777596893    -2.814663747264     0.003878590020
    O           -1.829792215537     1.454262872731     2.049405259475
    H            2.540620892485     2.705351257474     0.154265794814
    H            0.354909194536     2.572276711752     1.358107239238
    H           -0.175455795126    -2.323840615045    -0.948498336171
    H            1.833828104987    -1.203918329014    -1.485084911945
    H            2.868684047937    -0.090084947802    -3.585285869366
    H            2.693835689043     1.687896188396    -3.499568551337
    H            4.262613759879     0.958864748478    -3.907317336464

	Removing binary optimization data file.
	Cleaning optimization helper files.

    Psi4 stopped on: Tuesday, 22 June 2021 01:41AM
    Psi4 wall time for execution: 0:29:08.71

*** Psi4 exiting successfully. Buy a developer a beer!
