
    -----------------------------------------------------------------------
          Psi4: An Open-Source Ab Initio Electronic Structure Package
                               Psi4 1.3.2 release

                         Git: Rev {HEAD} ecbda83 


    R. M. Parrish, L. A. Burns, D. G. A. Smith, A. C. Simmonett,
    A. E. DePrince III, E. G. Hohenstein, U. Bozkaya, A. Yu. Sokolov,
    R. Di Remigio, R. M. Richard, J. F. Gonthier, A. M. James,
    H. R. McAlexander, A. Kumar, M. Saitow, X. Wang, B. P. Pritchard,
    P. Verma, H. F. Schaefer III, K. Patkowski, R. A. King, E. F. Valeev,
    F. A. Evangelista, J. M. Turney, T. D. Crawford, and C. D. Sherrill,
    J. Chem. Theory Comput. 13(7) pp 3185--3197 (2017).
    (doi: 10.1021/acs.jctc.7b00174)


                         Additional Contributions by
    P. Kraus, H. Kruse, M. H. Lechner, M. C. Schieber, R. A. Shaw,
    A. Alenaizan, R. Galvelis, Z. L. Glick, S. Lehtola, and J. P. Misiewicz

    -----------------------------------------------------------------------


    Psi4 started on: Tuesday, 22 June 2021 07:34AM

    Process ID: 31950
    Host:       cpu-spot-dy-c5n2xlarge-1
    PSIDATADIR: /fsx/users/francis/anaconda3/envs/poltype-dev/share/psi4
    Memory:     500.0 MiB
    Threads:    1
    
  ==> Input File <==

--------------------------------------------------------------------------
molecule { 
0 1
 N   -1.069437   -1.471691   -0.114120
 C   -2.385068   -1.099928   -0.015187
 C   -2.597026    0.376949    0.386261
 F   -3.796625    0.789466   -0.032497
 F   -2.588661    0.394874    1.761194
 C   -1.486522    1.363949   -0.053602
 C   -0.140652    0.782688   -0.113475
 C    0.988507    1.602692   -0.177094
 C    2.265607    1.072931   -0.242474
 C    2.438243   -0.319141   -0.267261
 C    1.313802   -1.151560   -0.201167
 C    0.034822   -0.611870   -0.132879
 S    3.976431   -1.185261   -0.329318
 C    5.298971    0.057591   -0.220546
 O   -3.305562   -1.870112   -0.154302
 O   -1.757869    2.523703   -0.265296
 H    3.108221    1.751212   -0.283453
 H    0.839475    2.678114   -0.165392
 H   -0.917874   -2.457444   -0.290116
 H    1.442242   -2.231218   -0.205697
 H    4.913916    1.075734   -0.245407
 H    5.845595   -0.083871    0.713703
 H    5.974372   -0.080503   -1.066505
}
memory 16GB
set_num_threads(8)
psi4_io.set_default_path("/scratch/Psi4-ligand")
set freeze_core True
E, wfn = energy('wb97x-d/6-311++g**',return_wfn=True)
oeprop(wfn,"WIBERG_LOWDIN_INDICES")
clean()
--------------------------------------------------------------------------

  Memory set to  14.901 GiB by Python driver.
  Threads set to 8 by Python driver.

*** tstart() called on cpu-spot-dy-c5n2xlarge-1
*** at Tue Jun 22 07:34:11 2021

   => Loading Basis Set <=

    Name: 6-311++G**
    Role: ORBITAL
    Keyword: BASIS
    atoms 1             entry N          line   140 file /fsx/users/francis/anaconda3/envs/poltype-dev/share/psi4/basis/6-311ppgss.gbs 
    atoms 2-3, 6-12, 14 entry C          line   119 file /fsx/users/francis/anaconda3/envs/poltype-dev/share/psi4/basis/6-311ppgss.gbs 
    atoms 4-5           entry F          line   182 file /fsx/users/francis/anaconda3/envs/poltype-dev/share/psi4/basis/6-311ppgss.gbs 
    atoms 13            entry S          line   419 file /fsx/users/francis/anaconda3/envs/poltype-dev/share/psi4/basis/6-311ppgss.gbs 
    atoms 15-16         entry O          line   161 file /fsx/users/francis/anaconda3/envs/poltype-dev/share/psi4/basis/6-311ppgss.gbs 
    atoms 17-23         entry H          line    42 file /fsx/users/francis/anaconda3/envs/poltype-dev/share/psi4/basis/6-311ppgss.gbs 


         ---------------------------------------------------------
                                   SCF
               by Justin Turney, Rob Parrish, Andy Simmonett
                          and Daniel G. A. Smith
                              RKS Reference
                        8 Threads,  15258 MiB Core
         ---------------------------------------------------------

  ==> Geometry <==

    Molecular point group: c1
    Full point group: C1

    Geometry (in Angstrom), charge = 0, multiplicity = 1:

       Center              X                  Y                   Z               Mass       
    ------------   -----------------  -----------------  -----------------  -----------------
         N           -1.069437154114    -1.471690967553    -0.114120045442    14.003074004430
         C           -2.385068154114    -1.099927967553    -0.015187045442    12.000000000000
         C           -2.597026154114     0.376949032447     0.386260954558    12.000000000000
         F           -3.796625154114     0.789466032447    -0.032497045442    18.998403162730
         F           -2.588661154114     0.394874032447     1.761193954558    18.998403162730
         C           -1.486522154114     1.363949032447    -0.053602045442    12.000000000000
         C           -0.140652154114     0.782688032447    -0.113475045442    12.000000000000
         C            0.988506845886     1.602692032447    -0.177094045442    12.000000000000
         C            2.265606845886     1.072931032447    -0.242474045442    12.000000000000
         C            2.438242845886    -0.319140967553    -0.267261045442    12.000000000000
         C            1.313801845886    -1.151559967553    -0.201167045442    12.000000000000
         C            0.034821845886    -0.611869967553    -0.132879045442    12.000000000000
         S            3.976430845886    -1.185260967553    -0.329318045442    31.972071174400
         C            5.298970845886     0.057591032447    -0.220546045442    12.000000000000
         O           -3.305562154114    -1.870111967553    -0.154302045442    15.994914619570
         O           -1.757869154114     2.523703032447    -0.265296045442    15.994914619570
         H            3.108220845886     1.751212032447    -0.283453045442     1.007825032230
         H            0.839474845886     2.678114032447    -0.165392045442     1.007825032230
         H           -0.917874154114    -2.457443967553    -0.290116045442     1.007825032230
         H            1.442241845886    -2.231217967553    -0.205697045442     1.007825032230
         H            4.913915845886     1.075734032447    -0.245407045442     1.007825032230
         H            5.845594845886    -0.083870967553     0.713702954558     1.007825032230
         H            5.974371845886    -0.080502967553    -1.066505045442     1.007825032230

  Running in c1 symmetry.

  Rotational constants: A =      0.03951  B =      0.00835  C =      0.00724 [cm^-1]
  Rotational constants: A =   1184.53523  B =    250.37353  C =    216.95616 [MHz]
  Nuclear repulsion = 1190.211574981359263

  Charge       = 0
  Multiplicity = 1
  Electrons    = 124
  Nalpha       = 62
  Nbeta        = 62

  ==> Algorithm <==

  SCF Algorithm Type is DF.
  DIIS enabled.
  MOM disabled.
  Fractional occupation disabled.
  Guess Type is SAD.
  Energy threshold   = 1.00e-06
  Density threshold  = 1.00e-06
  Integral threshold = 0.00e+00

  ==> Primary Basis <==

  Basis Set: 6-311++G**
    Blend: 6-311++G**
    Number of shells: 199
    Number of basis function: 409
    Number of Cartesian functions: 425
    Spherical Harmonics?: true
    Max angular momentum: 2

  ==> DFT Potential <==

   => Composite Functional: WB97X-D <= 

    wB97X-D Hyb-GGA Exchange-Correlation Functional

    J.-D. Chai and M. Head-Gordon, Phys. Chem. Chem. Phys. 10, 6615 (2008)

    Deriv               =              1
    GGA                 =           TRUE
    Meta                =          FALSE

    Exchange Hybrid     =           TRUE
    MP2 Hybrid          =          FALSE

   => Exchange-Correlation Functionals <=

    1.0000   wB97D range-separated functional

   => Exact (HF) Exchange <=

    0.7780            HF,LR [omega = 0.2000]
    0.2220               HF 

   => Molecular Quadrature <=

    Radial Scheme          =       TREUTLER
    Pruning Scheme         =           FLAT
    Nuclear Scheme         =       TREUTLER

    BS radius alpha        =              1
    Pruning alpha          =              1
    Radial Points          =             75
    Spherical Points       =            302
    Total Points           =         520870
    Total Blocks           =           3902
    Max Points             =            256
    Max Functions          =            317

   => WB97X-D: Empirical Dispersion <=

    Chai and Head-Gordon Dispersion Correction
    Chai, J.-D.; Head-Gordon, M. (2010), J. Chem. Phys., 132: 6615-6620

        s6 =       1.000000

   => Loading Basis Set <=

    Name: (6-311++G** AUX)
    Role: JKFIT
    Keyword: DF_BASIS_SCF
    atoms 1             entry N          line   224 file /fsx/users/francis/anaconda3/envs/poltype-dev/share/psi4/basis/aug-cc-pvtz-jkfit.gbs 
    atoms 2-3, 6-12, 14 entry C          line   162 file /fsx/users/francis/anaconda3/envs/poltype-dev/share/psi4/basis/aug-cc-pvtz-jkfit.gbs 
    atoms 4-5           entry F          line   348 file /fsx/users/francis/anaconda3/envs/poltype-dev/share/psi4/basis/aug-cc-pvtz-jkfit.gbs 
    atoms 13            entry S          line   730 file /fsx/users/francis/anaconda3/envs/poltype-dev/share/psi4/basis/aug-cc-pvtz-jkfit.gbs 
    atoms 15-16         entry O          line   286 file /fsx/users/francis/anaconda3/envs/poltype-dev/share/psi4/basis/aug-cc-pvtz-jkfit.gbs 
    atoms 17-23         entry H          line    70 file /fsx/users/francis/anaconda3/envs/poltype-dev/share/psi4/basis/aug-cc-pvtz-jkfit.gbs 

  ==> Pre-Iterations <==

   -------------------------------------------------------
    Irrep   Nso     Nmo     Nalpha   Nbeta   Ndocc  Nsocc
   -------------------------------------------------------
     A        409     409       0       0       0       0
   -------------------------------------------------------
    Total     409     409      62      62      62       0
   -------------------------------------------------------

  ==> Integral Setup <==

  ==> DiskDFJK: Density-Fitted J/K Matrices <==

    J tasked:                  Yes
    K tasked:                  Yes
    wK tasked:                 Yes
    Omega:               2.000E-01
    OpenMP threads:              8
    Integrals threads:           8
    Memory [MiB]:             7967
    Algorithm:                Core
    Integral Cache:           NONE
    Schwarz Cutoff:          1E-12
    Fitting Condition:       1E-10

   => Auxiliary Basis Set <=

  Basis Set: (6-311++G** AUX)
    Blend: AUG-CC-PVTZ-JKFIT
    Number of shells: 590
    Number of basis function: 2028
    Number of Cartesian functions: 2530
    Spherical Harmonics?: true
    Max angular momentum: 4

  Cached 100.0% of DFT collocation blocks in 3.396 [GiB].

  Minimum eigenvalue in the overlap matrix is 2.3766888735E-07.
  Using Symmetric Orthogonalization.

  SCF Guess: Superposition of Atomic Densities via on-the-fly atomic UHF.

  ==> Iterations <==

                           Total Energy        Delta E     RMS |[F,P]|

   @DF-RKS iter SAD: -1187.90916079142221   -1.18791e+03   0.00000e+00 
   @DF-RKS iter   1: -1187.70881099778808    2.00350e-01   2.90633e-03 DIIS
   @DF-RKS iter   2: -1187.76083401565688   -5.20230e-02   2.96152e-03 DIIS
   @DF-RKS iter   3: -1188.30243630607083   -5.41602e-01   6.48001e-04 DIIS
   @DF-RKS iter   4: -1188.32571021671879   -2.32739e-02   2.40286e-04 DIIS
   @DF-RKS iter   5: -1188.32977654758611   -4.06633e-03   6.33557e-05 DIIS
   @DF-RKS iter   6: -1188.33021475723876   -4.38210e-04   1.95125e-05 DIIS
   @DF-RKS iter   7: -1188.33027241793889   -5.76607e-05   8.24945e-06 DIIS
   @DF-RKS iter   8: -1188.33028935739003   -1.69395e-05   3.31143e-06 DIIS
   @DF-RKS iter   9: -1188.33029258721308   -3.22982e-06   1.51019e-06 DIIS
   @DF-RKS iter  10: -1188.33029295854521   -3.71332e-07   5.56102e-07 DIIS
  Energy and wave function converged.


  ==> Post-Iterations <==

    Orbital Energies [Eh]
    ---------------------

    Doubly Occupied:                                                      

       1A    -89.052677     2A    -24.841442     3A    -24.839539  
       4A    -19.271486     5A    -19.262129     6A    -14.515068  
       7A    -10.484190     8A    -10.436622     9A    -10.411709  
      10A    -10.389434    11A    -10.373062    12A    -10.340625  
      13A    -10.334441    14A    -10.330146    15A    -10.329551  
      16A    -10.324320    17A     -8.093258    18A     -6.042807  
      19A     -6.038230    20A     -6.032404    21A     -1.390789  
      22A     -1.329179    23A     -1.193054    24A     -1.181739  
      25A     -1.097756    26A     -1.005605    27A     -0.943171  
      28A     -0.906760    29A     -0.888677    30A     -0.869096  
      31A     -0.799892    32A     -0.765452    33A     -0.753890  
      34A     -0.745421    35A     -0.697775    36A     -0.682022  
      37A     -0.670825    38A     -0.645774    39A     -0.631349  
      40A     -0.594029    41A     -0.588938    42A     -0.571056  
      43A     -0.564262    44A     -0.559736    45A     -0.557078  
      46A     -0.549523    47A     -0.546970    48A     -0.535239  
      49A     -0.520209    50A     -0.514920    51A     -0.510858  
      52A     -0.499686    53A     -0.492148    54A     -0.489689  
      55A     -0.475640    56A     -0.444103    57A     -0.431373  
      58A     -0.399323    59A     -0.395733    60A     -0.364946  
      61A     -0.341349    62A     -0.317483  

    Virtual:                                                              

      63A     -0.041427    64A      0.013196    65A      0.025538  
      66A      0.034796    67A      0.046647    68A      0.053751  
      69A      0.062430    70A      0.064195    71A      0.070914  
      72A      0.073080    73A      0.079874    74A      0.083103  
      75A      0.094897    76A      0.098365    77A      0.102913  
      78A      0.110427    79A      0.113610    80A      0.119972  
      81A      0.122614    82A      0.124952    83A      0.133254  
      84A      0.134432    85A      0.144241    86A      0.144795  
      87A      0.151167    88A      0.155070    89A      0.157659  
      90A      0.166966    91A      0.170714    92A      0.173164  
      93A      0.174768    94A      0.178899    95A      0.181886  
      96A      0.186982    97A      0.197456    98A      0.198949  
      99A      0.201605   100A      0.204045   101A      0.206585  
     102A      0.213683   103A      0.215044   104A      0.217011  
     105A      0.220101   106A      0.227066   107A      0.231999  
     108A      0.232258   109A      0.241025   110A      0.243532  
     111A      0.248813   112A      0.257662   113A      0.260739  
     114A      0.269168   115A      0.270396   116A      0.276677  
     117A      0.277485   118A      0.283663   119A      0.284478  
     120A      0.296375   121A      0.299688   122A      0.300072  
     123A      0.305965   124A      0.309825   125A      0.316852  
     126A      0.319030   127A      0.323503   128A      0.331786  
     129A      0.336889   130A      0.339596   131A      0.346254  
     132A      0.351163   133A      0.359973   134A      0.365835  
     135A      0.368407   136A      0.376857   137A      0.381819  
     138A      0.386264   139A      0.389901   140A      0.394529  
     141A      0.398454   142A      0.405804   143A      0.411351  
     144A      0.418948   145A      0.426193   146A      0.428806  
     147A      0.438421   148A      0.444795   149A      0.451016  
     150A      0.464266   151A      0.467196   152A      0.473064  
     153A      0.481879   154A      0.487607   155A      0.491670  
     156A      0.496308   157A      0.505582   158A      0.524666  
     159A      0.530555   160A      0.541317   161A      0.549414  
     162A      0.559294   163A      0.570243   164A      0.572217  
     165A      0.586417   166A      0.600233   167A      0.609651  
     168A      0.612051   169A      0.626540   170A      0.635837  
     171A      0.645742   172A      0.648132   173A      0.655237  
     174A      0.666180   175A      0.680847   176A      0.691928  
     177A      0.700138   178A      0.715032   179A      0.731173  
     180A      0.732339   181A      0.743328   182A      0.748149  
     183A      0.752541   184A      0.756087   185A      0.768067  
     186A      0.777665   187A      0.781739   188A      0.791494  
     189A      0.800271   190A      0.810539   191A      0.814791  
     192A      0.826882   193A      0.838973   194A      0.841280  
     195A      0.850873   196A      0.871137   197A      0.872892  
     198A      0.888719   199A      0.909238   200A      0.923084  
     201A      0.929621   202A      0.944694   203A      0.954633  
     204A      0.966025   205A      0.979079   206A      0.987812  
     207A      0.988621   208A      0.997137   209A      1.007017  
     210A      1.017074   211A      1.036939   212A      1.054041  
     213A      1.062163   214A      1.067003   215A      1.091964  
     216A      1.103036   217A      1.121949   218A      1.131732  
     219A      1.154812   220A      1.168828   221A      1.175813  
     222A      1.181641   223A      1.208161   224A      1.210852  
     225A      1.231181   226A      1.248513   227A      1.263660  
     228A      1.275615   229A      1.284371   230A      1.291117  
     231A      1.302681   232A      1.327854   233A      1.335562  
     234A      1.343455   235A      1.358278   236A      1.387253  
     237A      1.395813   238A      1.441287   239A      1.486078  
     240A      1.502269   241A      1.507159   242A      1.528851  
     243A      1.541441   244A      1.551531   245A      1.558046  
     246A      1.568290   247A      1.578111   248A      1.591250  
     249A      1.602572   250A      1.609808   251A      1.616506  
     252A      1.621795   253A      1.625983   254A      1.650436  
     255A      1.653384   256A      1.676045   257A      1.678276  
     258A      1.695567   259A      1.715559   260A      1.720743  
     261A      1.734091   262A      1.751468   263A      1.762224  
     264A      1.774989   265A      1.790936   266A      1.804508  
     267A      1.819845   268A      1.828264   269A      1.834518  
     270A      1.849777   271A      1.867579   272A      1.874360  
     273A      1.883102   274A      1.927343   275A      1.945934  
     276A      1.960906   277A      1.982117   278A      1.998046  
     279A      2.003631   280A      2.007415   281A      2.036715  
     282A      2.043362   283A      2.060523   284A      2.064236  
     285A      2.095517   286A      2.103615   287A      2.129783  
     288A      2.139427   289A      2.145771   290A      2.163111  
     291A      2.187142   292A      2.209912   293A      2.238454  
     294A      2.240718   295A      2.250689   296A      2.286279  
     297A      2.298544   298A      2.326756   299A      2.342502  
     300A      2.359394   301A      2.427527   302A      2.488769  
     303A      2.508174   304A      2.526190   305A      2.534722  
     306A      2.554923   307A      2.577122   308A      2.588305  
     309A      2.599239   310A      2.619784   311A      2.651538  
     312A      2.675924   313A      2.749691   314A      2.766476  
     315A      2.785062   316A      2.804760   317A      2.808196  
     318A      2.822992   319A      2.840656   320A      2.848846  
     321A      2.870430   322A      2.889625   323A      2.894006  
     324A      2.905552   325A      2.928668   326A      2.940373  
     327A      2.972176   328A      2.978777   329A      3.000364  
     330A      3.016745   331A      3.030896   332A      3.050702  
     333A      3.074260   334A      3.081945   335A      3.110675  
     336A      3.144935   337A      3.165138   338A      3.185586  
     339A      3.280433   340A      3.286490   341A      3.328206  
     342A      3.370940   343A      3.406596   344A      3.430862  
     345A      3.439748   346A      3.484148   347A      3.530204  
     348A      3.552649   349A      3.593105   350A      3.631943  
     351A      3.646715   352A      3.683302   353A      3.701687  
     354A      3.759081   355A      3.805602   356A      3.808563  
     357A      3.850831   358A      3.861035   359A      3.876302  
     360A      3.899966   361A      3.933833   362A      3.949275  
     363A      3.967981   364A      4.001493   365A      4.025606  
     366A      4.084189   367A      4.155876   368A      4.184500  
     369A      4.244730   370A      4.271921   371A      4.351450  
     372A      4.495560   373A      4.823551   374A      4.889588  
     375A      4.920096   376A      5.048426   377A      5.167650  
     378A      5.174538   379A      5.178026   380A      5.311045  
     381A      5.321452   382A      5.830149   383A      5.873921  
     384A      6.487514   385A      6.505483   386A      6.519926  
     387A      6.536377   388A      6.652746   389A      6.907453  
     390A      8.094729   391A     17.440817   392A     17.617981  
     393A     17.654147   394A     23.628858   395A     23.747526  
     396A     23.967457   397A     24.001694   398A     24.026122  
     399A     24.033841   400A     24.037812   401A     24.136361  
     402A     24.189941   403A     24.277325   404A     35.752670  
     405A     50.130635   406A     50.146904   407A     66.919711  
     408A     66.960969   409A    189.358012  

    Final Occupation by Irrep:
              A 
    DOCC [    62 ]

  @DF-RKS Final Energy: -1188.33029295854521

   => Energetics <=

    Nuclear Repulsion Energy =           1190.2115749813592629
    One-Electron Energy =               -3995.3995289889353444
    Two-Electron Energy =                1706.6102899092034022
    DFT Exchange-Correlation Energy =     -89.7391063846452539
    Empirical Dispersion Energy =          -0.0135224755270491
    VV10 Nonlocal Energy =                  0.0000000000000000
    Total Energy =                      -1188.3302929585449874

Computation Completed


Properties will be evaluated at   0.000000,   0.000000,   0.000000 [a0]

Properties computed using the SCF density matrix

  Nuclear Dipole Moment: [e a0]
     X:    25.9872      Y:    -0.5299      Z:    -3.0875

  Electronic Dipole Moment: [e a0]
     X:   -22.8175      Y:     0.1295      Z:     2.8429

  Dipole Moment: [e a0]
     X:     3.1697      Y:    -0.4004      Z:    -0.2446     Total:     3.2042

  Dipole Moment: [D]
     X:     8.0565      Y:    -1.0177      Z:    -0.6218     Total:     8.1443


*** tstop() called on cpu-spot-dy-c5n2xlarge-1 at Tue Jun 22 07:35:40 2021
Module time:
	user time   =     643.49 seconds =      10.72 minutes
	system time =      10.29 seconds =       0.17 minutes
	total time  =         89 seconds =       1.48 minutes
Total time:
	user time   =     643.49 seconds =      10.72 minutes
	system time =      10.29 seconds =       0.17 minutes
	total time  =         89 seconds =       1.48 minutes


Properties will be evaluated at   0.000000,   0.000000,   0.000000 [a0]
OEProp: No title given, name of density matrix used for the following properties is 'SCF density'


  Wiberg Bond Indices using Orthogonal Lowdin Orbitals:

  Irrep: 1 Size: 23 x 23

                 1                   2                   3                   4                   5

    1     0.00000000000000     1.31394870174377     0.10278658955236     0.01073782257437     0.02335387021770
    2     1.31394870174377     0.00000000000000     0.88366523061155     0.10652662303501     0.11229423026439
    3     0.10278658955236     0.88366523061155     0.00000000000000     1.40491860971912     1.31181639828334
    4     0.01073782257437     0.10652662303501     1.40491860971912     0.00000000000000     0.13733313046178
    5     0.02335387021770     0.11229423026439     1.31181639828334     0.13733313046178     0.00000000000000
    6     0.03499089149258     0.07686929971537     0.89804502192042     0.10347027225508     0.11298332449546
    7     0.11685363616732     0.03630421982353     0.10210309147118     0.01182532945091     0.02277400800407
    8     0.01528786527725     0.00386958971737     0.01416669977441     0.00208050640634     0.00333466287662
    9     0.01457133344735     0.00521084788109     0.00262767791307     0.00043482342391     0.00065629257993
   10     0.01714295464629     0.00304520443607     0.00159882381455     0.00024997120327     0.00124096887565
   11     0.13392907480078     0.02653835076293     0.00459551027882     0.00043398297187     0.00127601859843
   12     1.18516953144338     0.09766227469380     0.03331385498139     0.00376693443603     0.01180050001099
   13     0.00286868753575     0.00106101434759     0.00069549413978     0.00011518400318     0.00069627526943
   14     0.00050171391539     0.00016510105927     0.00008749570460     0.00001440568495     0.00002794364927
   15     0.24445101616042     2.29826088417543     0.15034824340166     0.04365518793532     0.02819185344616
   16     0.00450951091903     0.01777683551649     0.15838864701076     0.04599671663006     0.03104061496336
   17     0.00071802915936     0.00022591843675     0.00047395014090     0.00008617126347     0.00005333597910
   18     0.00129134296791     0.00049203400875     0.00208453262407     0.00040675337217     0.00034014475442
   19     0.91439536013859     0.07268088505135     0.01392021348738     0.00206915713912     0.00154372058412
   20     0.02322058555942     0.00230844698038     0.00074793049014     0.00012328504181     0.00010805339935
   21     0.00008820573886     0.00002838305142     0.00005060704314     0.00000807351951     0.00000572771255
   22     0.00008868413359     0.00003780768924     0.00002106284542     0.00000327628512     0.00001645873611
   23     0.00008822096408     0.00003993357740     0.00001533309690     0.00000234694589     0.00001111269808

                 6                   7                   8                   9                  10

    1     0.03499089149258     0.11685363616732     0.01528786527725     0.01457133344735     0.01714295464629
    2     0.07686929971537     0.03630421982353     0.00386958971737     0.00521084788109     0.00304520443607
    3     0.89804502192042     0.10210309147118     0.01416669977441     0.00262767791307     0.00159882381455
    4     0.10347027225508     0.01182532945091     0.00208050640634     0.00043482342391     0.00024997120327
    5     0.11298332449546     0.02277400800407     0.00333466287662     0.00065629257993     0.00124096887565
    6     0.00000000000000     1.05815366683319     0.12027353863741     0.02002927841014     0.01472395465308
    7     1.05815366683319     0.00000000000000     1.34810893096920     0.13236822972080     0.10838989949019
    8     0.12027353863741     1.34810893096920     0.00000000000000     1.49950340305974     0.13564763628964
    9     0.02002927841014     0.13236822972080     1.49950340305974     0.00000000000000     1.37839818015287
   10     0.01472395465308     0.10838989949019     0.13564763628964     1.37839818015287     0.00000000000000
   11     0.01596336932566     0.12002280265882     0.12107105623785     0.12553907596885     1.41199428673742
   12     0.11386402435501     1.27190699585543     0.12412366744571     0.10835016240655     0.12926591337647
   13     0.00657886390296     0.02306650033154     0.02543003520684     0.14255756308236     1.30829594814529
   14     0.00031018245711     0.00147297613529     0.00379915516487     0.04293772503075     0.07780677528277
   15     0.01692317208092     0.00875435222177     0.00109699195898     0.00430056448132     0.00195643664679
   16     2.32410446384991     0.16335587534812     0.07216998383584     0.00616725681923     0.01530134561975
   17     0.00147895674138     0.01229956451190     0.08400444286868     0.86014102613553     0.07468514273842
   18     0.02009944878155     0.07731088329582     0.85318904713313     0.08050350186903     0.01214783573125
   19     0.00271701945082     0.01274388597512     0.00171815253001     0.00140907103926     0.00194308663484
   20     0.00172993131042     0.01147025504470     0.00559131697208     0.01251455302347     0.07534045290449
   21     0.00010624650050     0.00060593725994     0.00235534109969     0.02396450867463     0.02119679237281
   22     0.00013776981204     0.00044297278967     0.00022274027645     0.00296185886156     0.00914412286400
   23     0.00010377305379     0.00031241356517     0.00021332347411     0.00255941884996     0.00944717077243

                11                  12                  13                  14                  15

    1     0.13392907480078     1.18516953144338     0.00286868753575     0.00050171391539     0.24445101616042
    2     0.02653835076293     0.09766227469380     0.00106101434759     0.00016510105927     2.29826088417543
    3     0.00459551027882     0.03331385498139     0.00069549413978     0.00008749570460     0.15034824340166
    4     0.00043398297187     0.00376693443603     0.00011518400318     0.00001440568495     0.04365518793532
    5     0.00127601859843     0.01180050001099     0.00069627526943     0.00002794364927     0.02819185344616
    6     0.01596336932566     0.11386402435501     0.00657886390296     0.00031018245711     0.01692317208092
    7     0.12002280265882     1.27190699585543     0.02306650033154     0.00147297613529     0.00875435222177
    8     0.12107105623785     0.12412366744571     0.02543003520684     0.00379915516487     0.00109699195898
    9     0.12553907596885     0.10835016240655     0.14255756308236     0.04293772503075     0.00430056448132
   10     1.41199428673742     0.12926591337647     1.30829594814529     0.07780677528277     0.00195643664679
   11     0.00000000000000     1.39512065131183     0.18690403704791     0.01856770213446     0.01229920850319
   12     1.39512065131183     0.00000000000000     0.02622794187976     0.00317556167904     0.03047261435597
   13     0.18690403704791     0.02622794187976     0.00000000000000     1.23537317377361     0.00084888144684
   14     0.01856770213446     0.00317556167904     1.23537317377361     0.00000000000000     0.00010323398867
   15     0.01229920850319     0.03047261435597     0.00084888144684     0.00010323398867     0.00000000000000
   16     0.00489394815923     0.04026475235235     0.00680882386574     0.00022918366081     0.00683228423715
   17     0.01229507438616     0.00530753852494     0.01938581816603     0.02087921644815     0.00016387285708
   18     0.00532095368092     0.01201820226937     0.00218203447028     0.00042783218244     0.00018709075682
   19     0.02012051239399     0.06530428432507     0.00033458444597     0.00006742913024     0.02781555462006
   20     0.84987015686400     0.07808859108975     0.03423717845672     0.00270627596798     0.00067068643735
   21     0.00229541268442     0.00038859841802     0.05524736745813     0.93097994843253     0.00000775373634
   22     0.00210663400560     0.00056090465333     0.07041972048768     0.94784826532814     0.00004050619832
   23     0.00210472379678     0.00058338526173     0.07150270213286     0.94751575903357     0.00003346971039

                16                  17                  18                  19                  20

    1     0.00450951091903     0.00071802915936     0.00129134296791     0.91439536013859     0.02322058555942
    2     0.01777683551649     0.00022591843675     0.00049203400875     0.07268088505135     0.00230844698038
    3     0.15838864701076     0.00047395014090     0.00208453262407     0.01392021348738     0.00074793049014
    4     0.04599671663006     0.00008617126347     0.00040675337217     0.00206915713912     0.00012328504181
    5     0.03104061496336     0.00005333597910     0.00034014475442     0.00154372058412     0.00010805339935
    6     2.32410446384991     0.00147895674138     0.02009944878155     0.00271701945082     0.00172993131042
    7     0.16335587534812     0.01229956451190     0.07731088329582     0.01274388597512     0.01147025504470
    8     0.07216998383584     0.08400444286868     0.85318904713313     0.00171815253001     0.00559131697208
    9     0.00616725681923     0.86014102613553     0.08050350186903     0.00140907103926     0.01251455302347
   10     0.01530134561975     0.07468514273842     0.01214783573125     0.00194308663484     0.07534045290449
   11     0.00489394815923     0.01229507438616     0.00532095368092     0.02012051239399     0.84987015686400
   12     0.04026475235235     0.00530753852494     0.01201820226937     0.06530428432507     0.07808859108975
   13     0.00680882386574     0.01938581816603     0.00218203447028     0.00033458444597     0.03423717845672
   14     0.00022918366081     0.02087921644815     0.00042783218244     0.00006742913024     0.00270627596798
   15     0.00683228423715     0.00016387285708     0.00018709075682     0.02781555462006     0.00067068643735
   16     0.00000000000000     0.00037802766754     0.01889499657010     0.00049725183683     0.00060884963316
   17     0.00037802766754     0.00000000000000     0.01048807693538     0.00010978146660     0.00117423293715
   18     0.01889499657010     0.01048807693538     0.00000000000000     0.00060211911092     0.00047982395351
   19     0.00049725183683     0.00010978146660     0.00060211911092     0.00000000000000     0.00627856673075
   20     0.00060884963316     0.00117423293715     0.00047982395351     0.00627856673075     0.00000000000000
   21     0.00004214466314     0.01676883033949     0.00018676203985     0.00001632496498     0.00062114497531
   22     0.00014280880829     0.00133009003194     0.00003101090359     0.00000826731009     0.00026990323087
   23     0.00009849421289     0.00125380263700     0.00003194642417     0.00000846708239     0.00030899196539

                21                  22                  23

    1     0.00008820573886     0.00008868413359     0.00008822096408
    2     0.00002838305142     0.00003780768924     0.00003993357740
    3     0.00005060704314     0.00002106284542     0.00001533309690
    4     0.00000807351951     0.00000327628512     0.00000234694589
    5     0.00000572771255     0.00001645873611     0.00001111269808
    6     0.00010624650050     0.00013776981204     0.00010377305379
    7     0.00060593725994     0.00044297278967     0.00031241356517
    8     0.00235534109969     0.00022274027645     0.00021332347411
    9     0.02396450867463     0.00296185886156     0.00255941884996
   10     0.02119679237281     0.00914412286400     0.00944717077243
   11     0.00229541268442     0.00210663400560     0.00210472379678
   12     0.00038859841802     0.00056090465333     0.00058338526173
   13     0.05524736745813     0.07041972048768     0.07150270213286
   14     0.93097994843253     0.94784826532814     0.94751575903357
   15     0.00000775373634     0.00004050619832     0.00003346971039
   16     0.00004214466314     0.00014280880829     0.00009849421289
   17     0.01676883033949     0.00133009003194     0.00125380263700
   18     0.00018676203985     0.00003101090359     0.00003194642417
   19     0.00001632496498     0.00000826731009     0.00000846708239
   20     0.00062114497531     0.00026990323087     0.00030899196539
   21     0.00000000000000     0.04209653599827     0.04226707139425
   22     0.04209653599827     0.00000000000000     0.04009317138832
   23     0.04226707139425     0.04009317138832     0.00000000000000



  Atomic Valences: 

 #  #
 Irrep: 1
      1:  4.1609936
      2:  5.0590118
      3:  5.0864710
      4:  1.8742586
      5:  1.8008986
      6:  4.9436565
      7:  4.6406464
      8:  4.4372581
      9:  4.4677064
     10:  4.8089629
     11:  4.4732625
     12:  4.7367369
     13:  3.2208378
     14:  4.2349971
     15:  2.8774139
     16:  2.9185028
     17:  1.1237009
     18:  1.0987164
     19:  1.1463037
     20:  1.1084692
     21:  1.1393277
     22:  1.1180246
     23:  1.1185950


    Psi4 stopped on: Tuesday, 22 June 2021 07:35AM
    Psi4 wall time for execution: 0:01:28.81

*** Psi4 exiting successfully. Buy a developer a beer!
