
    -----------------------------------------------------------------------
          Psi4: An Open-Source Ab Initio Electronic Structure Package
                               Psi4 1.3.2 release

                         Git: Rev {HEAD} ecbda83 


    R. M. Parrish, L. A. Burns, D. G. A. Smith, A. C. Simmonett,
    A. E. DePrince III, E. G. Hohenstein, U. Bozkaya, A. Yu. Sokolov,
    R. Di Remigio, R. M. Richard, J. F. Gonthier, A. M. James,
    H. R. McAlexander, A. Kumar, M. Saitow, X. Wang, B. P. Pritchard,
    P. Verma, H. F. Schaefer III, K. Patkowski, R. A. King, E. F. Valeev,
    F. A. Evangelista, J. M. Turney, T. D. Crawford, and C. D. Sherrill,
    J. Chem. Theory Comput. 13(7) pp 3185--3197 (2017).
    (doi: 10.1021/acs.jctc.7b00174)


                         Additional Contributions by
    P. Kraus, H. Kruse, M. H. Lechner, M. C. Schieber, R. A. Shaw,
    A. Alenaizan, R. Galvelis, Z. L. Glick, S. Lehtola, and J. P. Misiewicz

    -----------------------------------------------------------------------


    Psi4 started on: Tuesday, 22 June 2021 07:26AM

    Process ID: 31866
    Host:       cpu-spot-dy-c5n2xlarge-1
    PSIDATADIR: /fsx/users/francis/anaconda3/envs/poltype-dev/share/psi4
    Memory:     500.0 MiB
    Threads:    1
    
  ==> Input File <==

--------------------------------------------------------------------------
molecule { 
0 1
 N   -0.506573   -1.640983   -0.299840
 C   -1.809139   -1.801171    0.091349
 C   -2.471431   -0.572510    0.759917
 F   -3.571034   -0.261459    0.032542
 F   -2.872132   -0.953566    1.997214
 C   -1.619660    0.718125    0.913700
 C   -0.229940    0.669935    0.431060
 C    0.593608    1.794477    0.563080
 C    1.904116    1.770167    0.118313
 C    2.408021    0.608188   -0.483323
 C    1.601848   -0.518861   -0.615497
 C    0.281932   -0.495346   -0.158446
 S    4.105440    0.543099   -1.040804
 C    3.900571    1.265281   -2.701596
 O   -2.421435   -2.831543   -0.066928
 O   -2.135685    1.689078    1.418163
 H    2.545573    2.637122    0.237696
 H    0.176763    2.681094    1.030906
 H   -0.093368   -2.459636   -0.730571
 H    2.007398   -1.417868   -1.071823
 H    3.293459    0.617918   -3.338497
 H    3.456024    2.261560   -2.643734
 H    4.902377    1.347977   -3.130816
}
memory 16GB
set_num_threads(8)
psi4_io.set_default_path("/scratch/Psi4-ligand")
set freeze_core True
E, wfn = energy('wb97x-d/6-311++g**',return_wfn=True)
oeprop(wfn,"WIBERG_LOWDIN_INDICES")
clean()
--------------------------------------------------------------------------

  Memory set to  14.901 GiB by Python driver.
  Threads set to 8 by Python driver.

*** tstart() called on cpu-spot-dy-c5n2xlarge-1
*** at Tue Jun 22 07:26:20 2021

   => Loading Basis Set <=

    Name: 6-311++G**
    Role: ORBITAL
    Keyword: BASIS
    atoms 1             entry N          line   140 file /fsx/users/francis/anaconda3/envs/poltype-dev/share/psi4/basis/6-311ppgss.gbs 
    atoms 2-3, 6-12, 14 entry C          line   119 file /fsx/users/francis/anaconda3/envs/poltype-dev/share/psi4/basis/6-311ppgss.gbs 
    atoms 4-5           entry F          line   182 file /fsx/users/francis/anaconda3/envs/poltype-dev/share/psi4/basis/6-311ppgss.gbs 
    atoms 13            entry S          line   419 file /fsx/users/francis/anaconda3/envs/poltype-dev/share/psi4/basis/6-311ppgss.gbs 
    atoms 15-16         entry O          line   161 file /fsx/users/francis/anaconda3/envs/poltype-dev/share/psi4/basis/6-311ppgss.gbs 
    atoms 17-23         entry H          line    42 file /fsx/users/francis/anaconda3/envs/poltype-dev/share/psi4/basis/6-311ppgss.gbs 


         ---------------------------------------------------------
                                   SCF
               by Justin Turney, Rob Parrish, Andy Simmonett
                          and Daniel G. A. Smith
                              RKS Reference
                        8 Threads,  15258 MiB Core
         ---------------------------------------------------------

  ==> Geometry <==

    Molecular point group: c1
    Full point group: C1

    Geometry (in Angstrom), charge = 0, multiplicity = 1:

       Center              X                  Y                   Z               Mass       
    ------------   -----------------  -----------------  -----------------  -----------------
         N           -0.506573098530    -1.640982873052    -0.299840115892    14.003074004430
         C           -1.809139098530    -1.801170873052     0.091348884108    12.000000000000
         C           -2.471431098530    -0.572509873052     0.759916884108    12.000000000000
         F           -3.571034098530    -0.261458873052     0.032541884108    18.998403162730
         F           -2.872132098530    -0.953565873052     1.997213884108    18.998403162730
         C           -1.619660098530     0.718125126948     0.913699884108    12.000000000000
         C           -0.229940098530     0.669935126948     0.431059884108    12.000000000000
         C            0.593607901470     1.794477126948     0.563079884108    12.000000000000
         C            1.904115901470     1.770167126948     0.118312884108    12.000000000000
         C            2.408020901470     0.608188126948    -0.483323115892    12.000000000000
         C            1.601847901470    -0.518860873052    -0.615497115892    12.000000000000
         C            0.281931901470    -0.495345873052    -0.158446115892    12.000000000000
         S            4.105439901470     0.543099126948    -1.040804115892    31.972071174400
         C            3.900570901470     1.265281126948    -2.701596115892    12.000000000000
         O           -2.421435098530    -2.831542873052    -0.066928115892    15.994914619570
         O           -2.135685098530     1.689078126948     1.418162884108    15.994914619570
         H            2.545572901470     2.637122126948     0.237695884108     1.007825032230
         H            0.176762901470     2.681094126948     1.030905884108     1.007825032230
         H           -0.093368098530    -2.459635873052    -0.730571115892     1.007825032230
         H            2.007397901470    -1.417867873052    -1.071823115892     1.007825032230
         H            3.293458901470     0.617918126948    -3.338497115892     1.007825032230
         H            3.456023901470     2.261560126948    -2.643734115892     1.007825032230
         H            4.902376901470     1.347977126948    -3.130816115892     1.007825032230

  Running in c1 symmetry.

  Rotational constants: A =      0.03727  B =      0.00844  C =      0.00739 [cm^-1]
  Rotational constants: A =   1117.37608  B =    252.92562  C =    221.58407 [MHz]
  Nuclear repulsion = 1188.831652637576553

  Charge       = 0
  Multiplicity = 1
  Electrons    = 124
  Nalpha       = 62
  Nbeta        = 62

  ==> Algorithm <==

  SCF Algorithm Type is DF.
  DIIS enabled.
  MOM disabled.
  Fractional occupation disabled.
  Guess Type is SAD.
  Energy threshold   = 1.00e-06
  Density threshold  = 1.00e-06
  Integral threshold = 0.00e+00

  ==> Primary Basis <==

  Basis Set: 6-311++G**
    Blend: 6-311++G**
    Number of shells: 199
    Number of basis function: 409
    Number of Cartesian functions: 425
    Spherical Harmonics?: true
    Max angular momentum: 2

  ==> DFT Potential <==

   => Composite Functional: WB97X-D <= 

    wB97X-D Hyb-GGA Exchange-Correlation Functional

    J.-D. Chai and M. Head-Gordon, Phys. Chem. Chem. Phys. 10, 6615 (2008)

    Deriv               =              1
    GGA                 =           TRUE
    Meta                =          FALSE

    Exchange Hybrid     =           TRUE
    MP2 Hybrid          =          FALSE

   => Exchange-Correlation Functionals <=

    1.0000   wB97D range-separated functional

   => Exact (HF) Exchange <=

    0.7780            HF,LR [omega = 0.2000]
    0.2220               HF 

   => Molecular Quadrature <=

    Radial Scheme          =       TREUTLER
    Pruning Scheme         =           FLAT
    Nuclear Scheme         =       TREUTLER

    BS radius alpha        =              1
    Pruning alpha          =              1
    Radial Points          =             75
    Spherical Points       =            302
    Total Points           =         520871
    Total Blocks           =           3855
    Max Points             =            256
    Max Functions          =            315

   => WB97X-D: Empirical Dispersion <=

    Chai and Head-Gordon Dispersion Correction
    Chai, J.-D.; Head-Gordon, M. (2010), J. Chem. Phys., 132: 6615-6620

        s6 =       1.000000

   => Loading Basis Set <=

    Name: (6-311++G** AUX)
    Role: JKFIT
    Keyword: DF_BASIS_SCF
    atoms 1             entry N          line   224 file /fsx/users/francis/anaconda3/envs/poltype-dev/share/psi4/basis/aug-cc-pvtz-jkfit.gbs 
    atoms 2-3, 6-12, 14 entry C          line   162 file /fsx/users/francis/anaconda3/envs/poltype-dev/share/psi4/basis/aug-cc-pvtz-jkfit.gbs 
    atoms 4-5           entry F          line   348 file /fsx/users/francis/anaconda3/envs/poltype-dev/share/psi4/basis/aug-cc-pvtz-jkfit.gbs 
    atoms 13            entry S          line   730 file /fsx/users/francis/anaconda3/envs/poltype-dev/share/psi4/basis/aug-cc-pvtz-jkfit.gbs 
    atoms 15-16         entry O          line   286 file /fsx/users/francis/anaconda3/envs/poltype-dev/share/psi4/basis/aug-cc-pvtz-jkfit.gbs 
    atoms 17-23         entry H          line    70 file /fsx/users/francis/anaconda3/envs/poltype-dev/share/psi4/basis/aug-cc-pvtz-jkfit.gbs 

  ==> Pre-Iterations <==

   -------------------------------------------------------
    Irrep   Nso     Nmo     Nalpha   Nbeta   Ndocc  Nsocc
   -------------------------------------------------------
     A        409     409       0       0       0       0
   -------------------------------------------------------
    Total     409     409      62      62      62       0
   -------------------------------------------------------

  ==> Integral Setup <==

  ==> DiskDFJK: Density-Fitted J/K Matrices <==

    J tasked:                  Yes
    K tasked:                  Yes
    wK tasked:                 Yes
    Omega:               2.000E-01
    OpenMP threads:              8
    Integrals threads:           8
    Memory [MiB]:             7945
    Algorithm:                Core
    Integral Cache:           NONE
    Schwarz Cutoff:          1E-12
    Fitting Condition:       1E-10

   => Auxiliary Basis Set <=

  Basis Set: (6-311++G** AUX)
    Blend: AUG-CC-PVTZ-JKFIT
    Number of shells: 590
    Number of basis function: 2028
    Number of Cartesian functions: 2530
    Spherical Harmonics?: true
    Max angular momentum: 4

  Cached 100.0% of DFT collocation blocks in 3.417 [GiB].

  Minimum eigenvalue in the overlap matrix is 2.4358601185E-07.
  Using Symmetric Orthogonalization.

  SCF Guess: Superposition of Atomic Densities via on-the-fly atomic UHF.

  ==> Iterations <==

                           Total Energy        Delta E     RMS |[F,P]|

   @DF-RKS iter SAD: -1187.82489432020770   -1.18782e+03   0.00000e+00 
   @DF-RKS iter   1: -1187.79255183612713    3.23425e-02   2.79742e-03 DIIS
   @DF-RKS iter   2: -1187.83603404995438   -4.34822e-02   2.84797e-03 DIIS
   @DF-RKS iter   3: -1188.29782259554122   -4.61789e-01   7.10688e-04 DIIS
   @DF-RKS iter   4: -1188.32765767527121   -2.98351e-02   1.82605e-04 DIIS
   @DF-RKS iter   5: -1188.32989181136395   -2.23414e-03   5.10666e-05 DIIS
   @DF-RKS iter   6: -1188.33009415342872   -2.02342e-04   1.58643e-05 DIIS
   @DF-RKS iter   7: -1188.33011341630277   -1.92629e-05   5.08679e-06 DIIS
   @DF-RKS iter   8: -1188.33011678752155   -3.37122e-06   1.58585e-06 DIIS
   @DF-RKS iter   9: -1188.33011745413160   -6.66610e-07   8.19770e-07 DIIS
  Energy and wave function converged.


  ==> Post-Iterations <==

    Orbital Energies [Eh]
    ---------------------

    Doubly Occupied:                                                      

       1A    -89.038655     2A    -24.844097     3A    -24.843954  
       4A    -19.278343     5A    -19.264568     6A    -14.521397  
       7A    -10.490442     8A    -10.440738     9A    -10.418943  
      10A    -10.394943    11A    -10.364743    12A    -10.341270  
      13A    -10.336824    14A    -10.336328    15A    -10.332169  
      16A    -10.326685    17A     -8.079207    18A     -6.028787  
      19A     -6.024893    20A     -6.017653    21A     -1.394522  
      22A     -1.333054    23A     -1.196581    24A     -1.188907  
      25A     -1.102917    26A     -1.007171    27A     -0.940178  
      28A     -0.905925    29A     -0.891218    30A     -0.867292  
      31A     -0.793027    32A     -0.771071    33A     -0.757648  
      34A     -0.743129    35A     -0.701151    36A     -0.686600  
      37A     -0.675049    38A     -0.649933    39A     -0.632555  
      40A     -0.595122    41A     -0.583461    42A     -0.573669  
      43A     -0.566202    44A     -0.561458    45A     -0.560371  
      46A     -0.555463    47A     -0.539835    48A     -0.535259  
      49A     -0.529571    50A     -0.520783    51A     -0.513298  
      52A     -0.502815    53A     -0.497825    54A     -0.480549  
      55A     -0.477135    56A     -0.444398    57A     -0.426354  
      58A     -0.400293    59A     -0.372173    60A     -0.370466  
      61A     -0.342698    62A     -0.335423  

    Virtual:                                                              

      63A     -0.052613    64A      0.009238    65A      0.026544  
      66A      0.036223    67A      0.041856    68A      0.048226  
      69A      0.057371    70A      0.063205    71A      0.068373  
      72A      0.072510    73A      0.077326    74A      0.086070  
      75A      0.087625    76A      0.099335    77A      0.103306  
      78A      0.107931    79A      0.113421    80A      0.120988  
      81A      0.125719    82A      0.128745    83A      0.133458  
      84A      0.134398    85A      0.138061    86A      0.142586  
      87A      0.152568    88A      0.155946    89A      0.160684  
      90A      0.163486    91A      0.168328    92A      0.172281  
      93A      0.174009    94A      0.177437    95A      0.183727  
      96A      0.186059    97A      0.190815    98A      0.192620  
      99A      0.195186   100A      0.197596   101A      0.200088  
     102A      0.208917   103A      0.214865   104A      0.218495  
     105A      0.223940   106A      0.230544   107A      0.235563  
     108A      0.238900   109A      0.241290   110A      0.244595  
     111A      0.249579   112A      0.252025   113A      0.253870  
     114A      0.258447   115A      0.270440   116A      0.273406  
     117A      0.281523   118A      0.285905   119A      0.287289  
     120A      0.295033   121A      0.297521   122A      0.302528  
     123A      0.309136   124A      0.311023   125A      0.314413  
     126A      0.318309   127A      0.324114   128A      0.328845  
     129A      0.331669   130A      0.338077   131A      0.343267  
     132A      0.351303   133A      0.353244   134A      0.360293  
     135A      0.363243   136A      0.369587   137A      0.374947  
     138A      0.377028   139A      0.385024   140A      0.390503  
     141A      0.391995   142A      0.401973   143A      0.403954  
     144A      0.406044   145A      0.419128   146A      0.427879  
     147A      0.432649   148A      0.433165   149A      0.442066  
     150A      0.448215   151A      0.459131   152A      0.466225  
     153A      0.468838   154A      0.478462   155A      0.486514  
     156A      0.502916   157A      0.510403   158A      0.518894  
     159A      0.527016   160A      0.540040   161A      0.542551  
     162A      0.544231   163A      0.580486   164A      0.582599  
     165A      0.599352   166A      0.608539   167A      0.613028  
     168A      0.616985   169A      0.628543   170A      0.632438  
     171A      0.637534   172A      0.648539   173A      0.661944  
     174A      0.671698   175A      0.686043   176A      0.690495  
     177A      0.701241   178A      0.715233   179A      0.726602  
     180A      0.730844   181A      0.745258   182A      0.747529  
     183A      0.752245   184A      0.766526   185A      0.768119  
     186A      0.778559   187A      0.785344   188A      0.789364  
     189A      0.793259   190A      0.802402   191A      0.814840  
     192A      0.831678   193A      0.838571   194A      0.853492  
     195A      0.868625   196A      0.870226   197A      0.894344  
     198A      0.898282   199A      0.919371   200A      0.937637  
     201A      0.943657   202A      0.946868   203A      0.950179  
     204A      0.968437   205A      0.972368   206A      0.988198  
     207A      0.998798   208A      1.006976   209A      1.015420  
     210A      1.025884   211A      1.042993   212A      1.047009  
     213A      1.055575   214A      1.061802   215A      1.096660  
     216A      1.106922   217A      1.116239   218A      1.128184  
     219A      1.136127   220A      1.160684   221A      1.171180  
     222A      1.174912   223A      1.189240   224A      1.201356  
     225A      1.208751   226A      1.227762   227A      1.242936  
     228A      1.260004   229A      1.282122   230A      1.293093  
     231A      1.305195   232A      1.313846   233A      1.318473  
     234A      1.345794   235A      1.361056   236A      1.383160  
     237A      1.406497   238A      1.462172   239A      1.471188  
     240A      1.477659   241A      1.497029   242A      1.516182  
     243A      1.517794   244A      1.540984   245A      1.552046  
     246A      1.573034   247A      1.576487   248A      1.591152  
     249A      1.596864   250A      1.604292   251A      1.622700  
     252A      1.623479   253A      1.638031   254A      1.650834  
     255A      1.657195   256A      1.665721   257A      1.680689  
     258A      1.683975   259A      1.693426   260A      1.710075  
     261A      1.746718   262A      1.765510   263A      1.770051  
     264A      1.781054   265A      1.790490   266A      1.810328  
     267A      1.825099   268A      1.829152   269A      1.853630  
     270A      1.862499   271A      1.890480   272A      1.906756  
     273A      1.925373   274A      1.938712   275A      1.948261  
     276A      1.954497   277A      1.964707   278A      1.986556  
     279A      1.996882   280A      2.007556   281A      2.024642  
     282A      2.028858   283A      2.037549   284A      2.054259  
     285A      2.077961   286A      2.082868   287A      2.097826  
     288A      2.106416   289A      2.126207   290A      2.164847  
     291A      2.186626   292A      2.208148   293A      2.243463  
     294A      2.248007   295A      2.255508   296A      2.304972  
     297A      2.312128   298A      2.319489   299A      2.324782  
     300A      2.370564   301A      2.424600   302A      2.474882  
     303A      2.517393   304A      2.524559   305A      2.529352  
     306A      2.541782   307A      2.593126   308A      2.598101  
     309A      2.616134   310A      2.641001   311A      2.645202  
     312A      2.692679   313A      2.750965   314A      2.756183  
     315A      2.786075   316A      2.790485   317A      2.806872  
     318A      2.812734   319A      2.827384   320A      2.837359  
     321A      2.852834   322A      2.884298   323A      2.896356  
     324A      2.917188   325A      2.919471   326A      2.945662  
     327A      2.965340   328A      2.970233   329A      2.996633  
     330A      3.011163   331A      3.036149   332A      3.043684  
     333A      3.059452   334A      3.081686   335A      3.096932  
     336A      3.127928   337A      3.165649   338A      3.220989  
     339A      3.287629   340A      3.298475   341A      3.306958  
     342A      3.360025   343A      3.412624   344A      3.421767  
     345A      3.426985   346A      3.479441   347A      3.528415  
     348A      3.540514   349A      3.599800   350A      3.629553  
     351A      3.649057   352A      3.690185   353A      3.707867  
     354A      3.780665   355A      3.809548   356A      3.817749  
     357A      3.841246   358A      3.847748   359A      3.852777  
     360A      3.898110   361A      3.911324   362A      3.947583  
     363A      3.974125   364A      4.001246   365A      4.022936  
     366A      4.073563   367A      4.113122   368A      4.172656  
     369A      4.243163   370A      4.306299   371A      4.359956  
     372A      4.522118   373A      4.821125   374A      4.887133  
     375A      4.915118   376A      4.996365   377A      5.141838  
     378A      5.151682   379A      5.207384   380A      5.325237  
     381A      5.337040   382A      5.831538   383A      5.882418  
     384A      6.433532   385A      6.465603   386A      6.534289  
     387A      6.578461   388A      6.665892   389A      6.863823  
     390A      8.100578   391A     17.534984   392A     17.553212  
     393A     17.655235   394A     23.631396   395A     23.742490  
     396A     23.968015   397A     24.002322   398A     24.030515  
     399A     24.031858   400A     24.041119   401A     24.135181  
     402A     24.183820   403A     24.274671   404A     35.756671  
     405A     50.138967   406A     50.157020   407A     66.887520  
     408A     66.970872   409A    189.364088  

    Final Occupation by Irrep:
              A 
    DOCC [    62 ]

  @DF-RKS Final Energy: -1188.33011745413160

   => Energetics <=

    Nuclear Repulsion Energy =           1188.8316526375765534
    One-Electron Energy =               -3992.5634532886360830
    Two-Electron Energy =                1705.1438844331978544
    DFT Exchange-Correlation Energy =     -89.7286168703907521
    Empirical Dispersion Energy =          -0.0135843658789150
    VV10 Nonlocal Energy =                  0.0000000000000000
    Total Energy =                      -1188.3301174541313685

Computation Completed


Properties will be evaluated at   0.000000,   0.000000,   0.000000 [a0]

Properties computed using the SCF density matrix

  Nuclear Dipole Moment: [e a0]
     X:    21.4358      Y:     6.4735      Z:   -10.9785

  Electronic Dipole Moment: [e a0]
     X:   -19.1351      Y:    -6.0309      Z:     9.6768

  Dipole Moment: [e a0]
     X:     2.3008      Y:     0.4426      Z:    -1.3017     Total:     2.6803

  Dipole Moment: [D]
     X:     5.8479      Y:     1.1251      Z:    -3.3085     Total:     6.8125


*** tstop() called on cpu-spot-dy-c5n2xlarge-1 at Tue Jun 22 07:27:43 2021
Module time:
	user time   =     596.75 seconds =       9.95 minutes
	system time =       9.62 seconds =       0.16 minutes
	total time  =         83 seconds =       1.38 minutes
Total time:
	user time   =     596.75 seconds =       9.95 minutes
	system time =       9.62 seconds =       0.16 minutes
	total time  =         83 seconds =       1.38 minutes


Properties will be evaluated at   0.000000,   0.000000,   0.000000 [a0]
OEProp: No title given, name of density matrix used for the following properties is 'SCF density'


  Wiberg Bond Indices using Orthogonal Lowdin Orbitals:

  Irrep: 1 Size: 23 x 23

                 1                   2                   3                   4                   5

    1     0.00000000000000     1.32028280276474     0.10128111808344     0.01307851369341     0.01322744431952
    2     1.32028280276474     0.00000000000000     0.88411329619823     0.11059244547873     0.11054385660935
    3     0.10128111808344     0.88411329619823     0.00000000000000     1.36273079757401     1.36137121245813
    4     0.01307851369341     0.11059244547873     1.36273079757401     0.00000000000000     0.13797130300391
    5     0.01322744431952     0.11054385660935     1.36137121245813     0.13797130300391     0.00000000000000
    6     0.03428178402183     0.07401884765951     0.89616928909386     0.10929715847137     0.10963663428386
    7     0.11904946937199     0.03622473458542     0.09824358847483     0.01293187765384     0.01313299609224
    8     0.01496870871350     0.00377499921102     0.01326359581952     0.00196481261328     0.00196076017382
    9     0.01556932893743     0.00604546451688     0.00239404307844     0.00034926458365     0.00034216919682
   10     0.01732160948727     0.00304492587897     0.00146870159966     0.00042708232428     0.00044751918058
   11     0.13129861253211     0.02549311688421     0.00408791896122     0.00046381817595     0.00047388879274
   12     1.19009465487538     0.09719630018040     0.03112478149152     0.00440535879056     0.00453022093085
   13     0.00253733298262     0.00073127923580     0.00029400850201     0.00006343895869     0.00005580319709
   14     0.00042440405664     0.00011695648336     0.00009868518416     0.00003421082979     0.00003670505804
   15     0.24802701092344     2.29235398079919     0.15110995215989     0.03958940461956     0.03899546016400
   16     0.00511976763880     0.01578568971343     0.15989692273478     0.04329048152586     0.04259228275660
   17     0.00074255807133     0.00024347797365     0.00050842821807     0.00006942949046     0.00006662978852
   18     0.00128756642369     0.00048727945935     0.00209806193288     0.00031619748218     0.00030688556359
   19     0.91308155260485     0.07317627911111     0.01371885582665     0.00170338865908     0.00169003314569
   20     0.02290565360258     0.00223178028739     0.00071137537287     0.00010637036302     0.00010551569730
   21     0.00008881907562     0.00002251302054     0.00001334620300     0.00000416085429     0.00000367433418
   22     0.00006377217046     0.00002320265016     0.00001666893445     0.00000348104480     0.00000397813501
   23     0.00004819390986     0.00001620420731     0.00001043403434     0.00000345589985     0.00000417855007

                 6                   7                   8                   9                  10

    1     0.03428178402183     0.11904946937199     0.01496870871350     0.01556932893743     0.01732160948727
    2     0.07401884765951     0.03622473458542     0.00377499921102     0.00604546451688     0.00304492587897
    3     0.89616928909386     0.09824358847483     0.01326359581952     0.00239404307844     0.00146870159966
    4     0.10929715847137     0.01293187765384     0.00196481261328     0.00034926458365     0.00042708232428
    5     0.10963663428386     0.01313299609224     0.00196076017382     0.00034216919682     0.00044751918058
    6     0.00000000000000     1.05280232648020     0.11984980055086     0.01860135568217     0.01563048814658
    7     1.05280232648020     0.00000000000000     1.34438986982894     0.13050096823265     0.11463424195915
    8     0.11984980055086     1.34438986982894     0.00000000000000     1.50050675536788     0.13672692401483
    9     0.01860135568217     0.13050096823265     1.50050675536788     0.00000000000000     1.40023213364882
   10     0.01563048814658     0.11463424195915     0.13672692401483     1.40023213364882     0.00000000000000
   11     0.01471430744900     0.12021376845805     0.12827097779144     0.13114248414524     1.45768847965142
   12     0.11548559135489     1.29639282198501     0.12449337434319     0.11556430692188     0.13115767525363
   13     0.00154540917398     0.00913993465540     0.02113448386926     0.15327479105043     1.25310305327968
   14     0.00096367367396     0.00558242507148     0.00372698126708     0.03301969760090     0.08896015003906
   15     0.01544517833265     0.00997800289926     0.00115928289151     0.00540218207626     0.00194145613522
   16     2.32852364101047     0.16243122643301     0.07490011908740     0.00527063786846     0.01708799894963
   17     0.00149289724301     0.01262366366546     0.08231005683599     0.86301820737898     0.07648475328172
   18     0.02033414701295     0.07710092211276     0.85306235011048     0.08055064976277     0.01220400094170
   19     0.00256066483061     0.01258628750489     0.00168716927531     0.00135644513797     0.00195764553152
   20     0.00169092448821     0.01136692547413     0.00570323529609     0.01245676694062     0.07587117594539
   21     0.00006800073572     0.00041269067652     0.00039073481864     0.00390743888673     0.01496204476834
   22     0.00008711590173     0.00052290837912     0.00109114820507     0.00894865374727     0.01671535774028
   23     0.00010205791754     0.00058581325154     0.00035041619308     0.00237526800837     0.01295488829110

                11                  12                  13                  14                  15

    1     0.13129861253211     1.19009465487538     0.00253733298262     0.00042440405664     0.24802701092344
    2     0.02549311688421     0.09719630018040     0.00073127923580     0.00011695648336     2.29235398079919
    3     0.00408791896122     0.03112478149152     0.00029400850201     0.00009868518416     0.15110995215989
    4     0.00046381817595     0.00440535879056     0.00006343895869     0.00003421082979     0.03958940461956
    5     0.00047388879274     0.00453022093085     0.00005580319709     0.00003670505804     0.03899546016400
    6     0.01471430744900     0.11548559135489     0.00154540917398     0.00096367367396     0.01544517833265
    7     0.12021376845805     1.29639282198501     0.00913993465540     0.00558242507148     0.00997800289926
    8     0.12827097779144     0.12449337434319     0.02113448386926     0.00372698126708     0.00115928289151
    9     0.13114248414524     0.11556430692188     0.15327479105043     0.03301969760090     0.00540218207626
   10     1.45768847965142     0.13115767525363     1.25310305327968     0.08896015003906     0.00194145613522
   11     0.00000000000000     1.36189946452503     0.16431502820678     0.03218768338966     0.01119660955178
   12     1.36189946452503     0.00000000000000     0.02067166671602     0.00323524507982     0.03045203691779
   13     0.16431502820678     0.02067166671602     0.00000000000000     1.24132223821905     0.00025605377434
   14     0.03218768338966     0.00323524507982     1.24132223821905     0.00000000000000     0.00008731097875
   15     0.01119660955178     0.03045203691779     0.00025605377434     0.00008731097875     0.00000000000000
   16     0.00408106805239     0.04339106612609     0.00147803730719     0.00127664551969     0.00564612935870
   17     0.01251147395806     0.00546095743414     0.02787942003347     0.00578539988704     0.00018897093156
   18     0.00542893283709     0.01187036522389     0.00220799414867     0.00031524485402     0.00019597051862
   19     0.02026670205327     0.06551449654903     0.00038855314572     0.00008440411160     0.02858975486253
   20     0.84934427635119     0.07669042628555     0.03014147393209     0.00440054448010     0.00062639956304
   21     0.00688624235993     0.00061405704256     0.06798909823971     0.94480404667941     0.00001602206153
   22     0.00412241304409     0.00043494222689     0.06623566710860     0.94231575619359     0.00001451555359
   23     0.00260314416575     0.00036929013553     0.07024639880163     0.94759692113985     0.00000824175131

                16                  17                  18                  19                  20

    1     0.00511976763880     0.00074255807133     0.00128756642369     0.91308155260485     0.02290565360258
    2     0.01578568971343     0.00024347797365     0.00048727945935     0.07317627911111     0.00223178028739
    3     0.15989692273478     0.00050842821807     0.00209806193288     0.01371885582665     0.00071137537287
    4     0.04329048152586     0.00006942949046     0.00031619748218     0.00170338865908     0.00010637036302
    5     0.04259228275660     0.00006662978852     0.00030688556359     0.00169003314569     0.00010551569730
    6     2.32852364101047     0.00149289724301     0.02033414701295     0.00256066483061     0.00169092448821
    7     0.16243122643301     0.01262366366546     0.07710092211276     0.01258628750489     0.01136692547413
    8     0.07490011908740     0.08231005683599     0.85306235011048     0.00168716927531     0.00570323529609
    9     0.00527063786846     0.86301820737898     0.08055064976277     0.00135644513797     0.01245676694062
   10     0.01708799894963     0.07648475328172     0.01220400094170     0.00195764553152     0.07587117594539
   11     0.00408106805239     0.01251147395806     0.00542893283709     0.02026670205327     0.84934427635119
   12     0.04339106612609     0.00546095743414     0.01187036522389     0.06551449654903     0.07669042628555
   13     0.00147803730719     0.02787942003347     0.00220799414867     0.00038855314572     0.03014147393209
   14     0.00127664551969     0.00578539988704     0.00031524485402     0.00008440411160     0.00440054448010
   15     0.00564612935870     0.00018897093156     0.00019597051862     0.02858975486253     0.00062639956304
   16     0.00000000000000     0.00034237195567     0.02136605204203     0.00052325704370     0.00056496751305
   17     0.00034237195567     0.00000000000000     0.00995396181748     0.00011227426682     0.00118966679488
   18     0.02136605204203     0.00995396181748     0.00000000000000     0.00060475652414     0.00048239734972
   19     0.00052325704370     0.00011227426682     0.00060475652414     0.00000000000000     0.00639764497223
   20     0.00056496751305     0.00118966679488     0.00048239734972     0.00639764497223     0.00000000000000
   21     0.00007948149715     0.00040609649342     0.00003603646392     0.00001838501774     0.00113000326666
   22     0.00009801328034     0.00180075618236     0.00007940930568     0.00001454945748     0.00040441222948
   23     0.00014519468950     0.00029840096075     0.00004015986827     0.00000782643235     0.00023436481031

                21                  22                  23

    1     0.00008881907562     0.00006377217046     0.00004819390986
    2     0.00002251302054     0.00002320265016     0.00001620420731
    3     0.00001334620300     0.00001666893445     0.00001043403434
    4     0.00000416085429     0.00000348104480     0.00000345589985
    5     0.00000367433418     0.00000397813501     0.00000417855007
    6     0.00006800073572     0.00008711590173     0.00010205791754
    7     0.00041269067652     0.00052290837912     0.00058581325154
    8     0.00039073481864     0.00109114820507     0.00035041619308
    9     0.00390743888673     0.00894865374727     0.00237526800837
   10     0.01496204476834     0.01671535774028     0.01295488829110
   11     0.00688624235993     0.00412241304409     0.00260314416575
   12     0.00061405704256     0.00043494222689     0.00036929013553
   13     0.06798909823971     0.06623566710860     0.07024639880163
   14     0.94480404667941     0.94231575619359     0.94759692113985
   15     0.00001602206153     0.00001451555359     0.00000824175131
   16     0.00007948149715     0.00009801328034     0.00014519468950
   17     0.00040609649342     0.00180075618236     0.00029840096075
   18     0.00003603646392     0.00007940930568     0.00004015986827
   19     0.00001838501774     0.00001454945748     0.00000782643235
   20     0.00113000326666     0.00040441222948     0.00023436481031
   21     0.00000000000000     0.03873572958009     0.04143285594580
   22     0.03873572958009     0.00000000000000     0.04159761892751
   23     0.04143285594580     0.04159761892751     0.00000000000000



  Atomic Valences: 

 #  #
 Irrep: 1
      1:  4.1647807
      2:  5.0565194
      3:  5.0847251
      4:  1.8393965
      5:  1.8374992
      6:  4.9333013
      7:  4.6408475
      8:  4.4356866
      9:  4.4908290
     10:  4.8510223
     11:  4.4886904
     12:  4.7310491
     13:  3.1350112
     14:  4.2563753
     15:  2.8812799
     16:  2.9338911
     17:  1.1034899
     18:  1.1003293
     19:  1.1460409
     20:  1.1047563
     21:  1.1220215
     22:  1.1233301
     23:  1.1210313


    Psi4 stopped on: Tuesday, 22 June 2021 07:27AM
    Psi4 wall time for execution: 0:01:22.81

*** Psi4 exiting successfully. Buy a developer a beer!
