
    -----------------------------------------------------------------------
          Psi4: An Open-Source Ab Initio Electronic Structure Package
                               Psi4 1.3.2 release

                         Git: Rev {HEAD} ecbda83 


    R. M. Parrish, L. A. Burns, D. G. A. Smith, A. C. Simmonett,
    A. E. DePrince III, E. G. Hohenstein, U. Bozkaya, A. Yu. Sokolov,
    R. Di Remigio, R. M. Richard, J. F. Gonthier, A. M. James,
    H. R. McAlexander, A. Kumar, M. Saitow, X. Wang, B. P. Pritchard,
    P. Verma, H. F. Schaefer III, K. Patkowski, R. A. King, E. F. Valeev,
    F. A. Evangelista, J. M. Turney, T. D. Crawford, and C. D. Sherrill,
    J. Chem. Theory Comput. 13(7) pp 3185--3197 (2017).
    (doi: 10.1021/acs.jctc.7b00174)


                         Additional Contributions by
    P. Kraus, H. Kruse, M. H. Lechner, M. C. Schieber, R. A. Shaw,
    A. Alenaizan, R. Galvelis, Z. L. Glick, S. Lehtola, and J. P. Misiewicz

    -----------------------------------------------------------------------


    Psi4 started on: Tuesday, 22 June 2021 07:23AM

    Process ID: 31836
    Host:       cpu-spot-dy-c5n2xlarge-1
    PSIDATADIR: /fsx/users/francis/anaconda3/envs/poltype-dev/share/psi4
    Memory:     500.0 MiB
    Threads:    1
    
  ==> Input File <==

--------------------------------------------------------------------------
molecule { 
0 1
 N   -0.933991   -1.543430    0.147930
 C   -2.264722   -1.260355    0.306603
 C   -2.637851    0.240860    0.353845
 F   -3.520393    0.467959   -0.649350
 F   -3.268265    0.461480    1.533054
 C   -1.490205    1.279530    0.222848
 C   -0.130599    0.756077    0.057835
 C    0.949196    1.636660   -0.072779
 C    2.242498    1.172901   -0.226175
 C    2.480947   -0.210311   -0.264566
 C    1.410967   -1.101450   -0.146666
 C    0.113488   -0.626563    0.025893
 S    4.086802   -0.933444   -0.406182
 C    5.062254    0.343867   -1.242430
 O   -3.111198   -2.118049    0.404788
 O   -1.775609    2.455761    0.261345
 H    3.056203    1.883110   -0.310529
 H    0.743297    2.702219   -0.042260
 H   -0.715228   -2.532221    0.122332
 H    1.592970   -2.171936   -0.198872
 H    4.701955    0.515641   -2.259152
 H    5.106060    1.276840   -0.677657
 H    6.075115   -0.063466   -1.298964
}
memory 16GB
set_num_threads(8)
psi4_io.set_default_path("/scratch/Psi4-ligand")
set freeze_core True
E, wfn = energy('wb97x-d/6-311++g**',return_wfn=True)
oeprop(wfn,"WIBERG_LOWDIN_INDICES")
clean()
--------------------------------------------------------------------------

  Memory set to  14.901 GiB by Python driver.
  Threads set to 8 by Python driver.

*** tstart() called on cpu-spot-dy-c5n2xlarge-1
*** at Tue Jun 22 07:23:12 2021

   => Loading Basis Set <=

    Name: 6-311++G**
    Role: ORBITAL
    Keyword: BASIS
    atoms 1             entry N          line   140 file /fsx/users/francis/anaconda3/envs/poltype-dev/share/psi4/basis/6-311ppgss.gbs 
    atoms 2-3, 6-12, 14 entry C          line   119 file /fsx/users/francis/anaconda3/envs/poltype-dev/share/psi4/basis/6-311ppgss.gbs 
    atoms 4-5           entry F          line   182 file /fsx/users/francis/anaconda3/envs/poltype-dev/share/psi4/basis/6-311ppgss.gbs 
    atoms 13            entry S          line   419 file /fsx/users/francis/anaconda3/envs/poltype-dev/share/psi4/basis/6-311ppgss.gbs 
    atoms 15-16         entry O          line   161 file /fsx/users/francis/anaconda3/envs/poltype-dev/share/psi4/basis/6-311ppgss.gbs 
    atoms 17-23         entry H          line    42 file /fsx/users/francis/anaconda3/envs/poltype-dev/share/psi4/basis/6-311ppgss.gbs 


         ---------------------------------------------------------
                                   SCF
               by Justin Turney, Rob Parrish, Andy Simmonett
                          and Daniel G. A. Smith
                              RKS Reference
                        8 Threads,  15258 MiB Core
         ---------------------------------------------------------

  ==> Geometry <==

    Molecular point group: c1
    Full point group: C1

    Geometry (in Angstrom), charge = 0, multiplicity = 1:

       Center              X                  Y                   Z               Mass       
    ------------   -----------------  -----------------  -----------------  -----------------
         N           -0.933990961137    -1.543430031654     0.147930042470    14.003074004430
         C           -2.264721961137    -1.260355031654     0.306603042470    12.000000000000
         C           -2.637850961137     0.240859968346     0.353845042470    12.000000000000
         F           -3.520392961137     0.467958968346    -0.649349957530    18.998403162730
         F           -3.268264961137     0.461479968346     1.533054042470    18.998403162730
         C           -1.490204961137     1.279529968346     0.222848042470    12.000000000000
         C           -0.130598961137     0.756076968346     0.057835042470    12.000000000000
         C            0.949196038863     1.636659968346    -0.072778957530    12.000000000000
         C            2.242498038863     1.172900968346    -0.226174957530    12.000000000000
         C            2.480947038863    -0.210311031654    -0.264565957530    12.000000000000
         C            1.410967038863    -1.101450031654    -0.146665957530    12.000000000000
         C            0.113488038863    -0.626563031654     0.025893042470    12.000000000000
         S            4.086802038863    -0.933444031654    -0.406181957530    31.972071174400
         C            5.062254038863     0.343866968346    -1.242429957530    12.000000000000
         O           -3.111197961137    -2.118049031654     0.404788042470    15.994914619570
         O           -1.775608961137     2.455760968346     0.261345042470    15.994914619570
         H            3.056203038863     1.883109968346    -0.310528957530     1.007825032230
         H            0.743297038863     2.702218968346    -0.042259957530     1.007825032230
         H           -0.715227961137    -2.532221031654     0.122332042470     1.007825032230
         H            1.592970038863    -2.171936031654    -0.198871957530     1.007825032230
         H            4.701955038863     0.515640968346    -2.259151957530     1.007825032230
         H            5.106060038863     1.276839968346    -0.677656957530     1.007825032230
         H            6.075115038863    -0.063466031654    -1.298963957530     1.007825032230

  Running in c1 symmetry.

  Rotational constants: A =      0.03935  B =      0.00829  C =      0.00716 [cm^-1]
  Rotational constants: A =   1179.61872  B =    248.64701  C =    214.60163 [MHz]
  Nuclear repulsion = 1187.796133991221723

  Charge       = 0
  Multiplicity = 1
  Electrons    = 124
  Nalpha       = 62
  Nbeta        = 62

  ==> Algorithm <==

  SCF Algorithm Type is DF.
  DIIS enabled.
  MOM disabled.
  Fractional occupation disabled.
  Guess Type is SAD.
  Energy threshold   = 1.00e-06
  Density threshold  = 1.00e-06
  Integral threshold = 0.00e+00

  ==> Primary Basis <==

  Basis Set: 6-311++G**
    Blend: 6-311++G**
    Number of shells: 199
    Number of basis function: 409
    Number of Cartesian functions: 425
    Spherical Harmonics?: true
    Max angular momentum: 2

  ==> DFT Potential <==

   => Composite Functional: WB97X-D <= 

    wB97X-D Hyb-GGA Exchange-Correlation Functional

    J.-D. Chai and M. Head-Gordon, Phys. Chem. Chem. Phys. 10, 6615 (2008)

    Deriv               =              1
    GGA                 =           TRUE
    Meta                =          FALSE

    Exchange Hybrid     =           TRUE
    MP2 Hybrid          =          FALSE

   => Exchange-Correlation Functionals <=

    1.0000   wB97D range-separated functional

   => Exact (HF) Exchange <=

    0.7780            HF,LR [omega = 0.2000]
    0.2220               HF 

   => Molecular Quadrature <=

    Radial Scheme          =       TREUTLER
    Pruning Scheme         =           FLAT
    Nuclear Scheme         =       TREUTLER

    BS radius alpha        =              1
    Pruning alpha          =              1
    Radial Points          =             75
    Spherical Points       =            302
    Total Points           =         520870
    Total Blocks           =           3885
    Max Points             =            256
    Max Functions          =            324

   => WB97X-D: Empirical Dispersion <=

    Chai and Head-Gordon Dispersion Correction
    Chai, J.-D.; Head-Gordon, M. (2010), J. Chem. Phys., 132: 6615-6620

        s6 =       1.000000

   => Loading Basis Set <=

    Name: (6-311++G** AUX)
    Role: JKFIT
    Keyword: DF_BASIS_SCF
    atoms 1             entry N          line   224 file /fsx/users/francis/anaconda3/envs/poltype-dev/share/psi4/basis/aug-cc-pvtz-jkfit.gbs 
    atoms 2-3, 6-12, 14 entry C          line   162 file /fsx/users/francis/anaconda3/envs/poltype-dev/share/psi4/basis/aug-cc-pvtz-jkfit.gbs 
    atoms 4-5           entry F          line   348 file /fsx/users/francis/anaconda3/envs/poltype-dev/share/psi4/basis/aug-cc-pvtz-jkfit.gbs 
    atoms 13            entry S          line   730 file /fsx/users/francis/anaconda3/envs/poltype-dev/share/psi4/basis/aug-cc-pvtz-jkfit.gbs 
    atoms 15-16         entry O          line   286 file /fsx/users/francis/anaconda3/envs/poltype-dev/share/psi4/basis/aug-cc-pvtz-jkfit.gbs 
    atoms 17-23         entry H          line    70 file /fsx/users/francis/anaconda3/envs/poltype-dev/share/psi4/basis/aug-cc-pvtz-jkfit.gbs 

  ==> Pre-Iterations <==

   -------------------------------------------------------
    Irrep   Nso     Nmo     Nalpha   Nbeta   Ndocc  Nsocc
   -------------------------------------------------------
     A        409     409       0       0       0       0
   -------------------------------------------------------
    Total     409     409      62      62      62       0
   -------------------------------------------------------

  ==> Integral Setup <==

  ==> DiskDFJK: Density-Fitted J/K Matrices <==

    J tasked:                  Yes
    K tasked:                  Yes
    wK tasked:                 Yes
    Omega:               2.000E-01
    OpenMP threads:              8
    Integrals threads:           8
    Memory [MiB]:             7973
    Algorithm:                Core
    Integral Cache:           NONE
    Schwarz Cutoff:          1E-12
    Fitting Condition:       1E-10

   => Auxiliary Basis Set <=

  Basis Set: (6-311++G** AUX)
    Blend: AUG-CC-PVTZ-JKFIT
    Number of shells: 590
    Number of basis function: 2028
    Number of Cartesian functions: 2530
    Spherical Harmonics?: true
    Max angular momentum: 4

  Cached 100.0% of DFT collocation blocks in 3.389 [GiB].

  Minimum eigenvalue in the overlap matrix is 2.5376574082E-07.
  Using Symmetric Orthogonalization.

  SCF Guess: Superposition of Atomic Densities via on-the-fly atomic UHF.

  ==> Iterations <==

                           Total Energy        Delta E     RMS |[F,P]|

   @DF-RKS iter SAD: -1187.89848792680436   -1.18790e+03   0.00000e+00 
   @DF-RKS iter   1: -1187.71907312314647    1.79415e-01   2.89970e-03 DIIS
   @DF-RKS iter   2: -1187.76709908741509   -4.80260e-02   2.96594e-03 DIIS
   @DF-RKS iter   3: -1188.30368654286394   -5.36587e-01   6.61625e-04 DIIS
   @DF-RKS iter   4: -1188.32837304218992   -2.46865e-02   2.32759e-04 DIIS
   @DF-RKS iter   5: -1188.33224523444028   -3.87219e-03   6.10825e-05 DIIS
   @DF-RKS iter   6: -1188.33266656023238   -4.21326e-04   1.85791e-05 DIIS
   @DF-RKS iter   7: -1188.33272229172462   -5.57315e-05   7.94645e-06 DIIS
   @DF-RKS iter   8: -1188.33273908907267   -1.67973e-05   3.25589e-06 DIIS
   @DF-RKS iter   9: -1188.33274233614793   -3.24708e-06   1.49476e-06 DIIS
   @DF-RKS iter  10: -1188.33274268532978   -3.49182e-07   6.04009e-07 DIIS
  Energy and wave function converged.


  ==> Post-Iterations <==

    Orbital Energies [Eh]
    ---------------------

    Doubly Occupied:                                                      

       1A    -89.051375     2A    -24.839853     3A    -24.839694  
       4A    -19.270639     5A    -19.261032     6A    -14.517758  
       7A    -10.485757     8A    -10.437184     9A    -10.412350  
      10A    -10.391729    11A    -10.370820    12A    -10.340098  
      13A    -10.334941    14A    -10.332844    15A    -10.331627  
      16A    -10.324961    17A     -8.091985    18A     -6.041491  
      19A     -6.037116    20A     -6.031032    21A     -1.390142  
      22A     -1.328694    23A     -1.193072    24A     -1.181466  
      25A     -1.099298    26A     -1.006632    27A     -0.943891  
      28A     -0.906598    29A     -0.889162    30A     -0.868629  
      31A     -0.799117    32A     -0.766563    33A     -0.754098  
      34A     -0.745572    35A     -0.698045    36A     -0.684618  
      37A     -0.670746    38A     -0.647404    39A     -0.630806  
      40A     -0.593301    41A     -0.586808    42A     -0.570022  
      43A     -0.564302    44A     -0.558507    45A     -0.555930  
      46A     -0.555668    47A     -0.548943    48A     -0.535773  
      49A     -0.520153    50A     -0.517207    51A     -0.509244  
      52A     -0.499066    53A     -0.494643    54A     -0.484272  
      55A     -0.476214    56A     -0.444513    57A     -0.431784  
      58A     -0.396763    59A     -0.394722    60A     -0.365187  
      61A     -0.342634    62A     -0.321631  

    Virtual:                                                              

      63A     -0.045426    64A      0.011648    65A      0.026178  
      66A      0.033646    67A      0.046136    68A      0.052214  
      69A      0.058609    70A      0.064902    71A      0.068546  
      72A      0.072147    73A      0.081759    74A      0.088075  
      75A      0.097579    76A      0.100613    77A      0.104800  
      78A      0.107321    79A      0.108098    80A      0.120824  
      81A      0.125600    82A      0.129001    83A      0.131154  
      84A      0.134905    85A      0.141061    86A      0.149233  
      87A      0.152489    88A      0.155398    89A      0.163849  
      90A      0.166844    91A      0.168752    92A      0.171678  
      93A      0.174717    94A      0.176316    95A      0.182612  
      96A      0.186585    97A      0.192568    98A      0.196799  
      99A      0.199903   100A      0.203071   101A      0.206416  
     102A      0.210112   103A      0.212774   104A      0.215249  
     105A      0.223887   106A      0.230439   107A      0.233580  
     108A      0.235697   109A      0.237007   110A      0.248498  
     111A      0.252864   112A      0.255097   113A      0.259286  
     114A      0.262699   115A      0.271763   116A      0.273452  
     117A      0.280760   118A      0.287102   119A      0.289656  
     120A      0.290601   121A      0.294107   122A      0.301553  
     123A      0.305439   124A      0.308729   125A      0.314810  
     126A      0.318234   127A      0.326415   128A      0.331664  
     129A      0.337330   130A      0.342693   131A      0.347970  
     132A      0.353207   133A      0.354570   134A      0.357883  
     135A      0.367090   136A      0.372650   137A      0.373757  
     138A      0.378001   139A      0.387856   140A      0.389231  
     141A      0.394961   142A      0.402029   143A      0.405813  
     144A      0.407957   145A      0.418747   146A      0.429199  
     147A      0.431939   148A      0.436513   149A      0.444383  
     150A      0.449024   151A      0.461870   152A      0.469571  
     153A      0.471621   154A      0.475757   155A      0.496876  
     156A      0.503535   157A      0.516344   158A      0.527195  
     159A      0.531850   160A      0.546061   161A      0.549792  
     162A      0.555955   163A      0.585132   164A      0.586209  
     165A      0.603853   166A      0.610882   167A      0.612156  
     168A      0.624404   169A      0.628721   170A      0.637100  
     171A      0.641301   172A      0.645641   173A      0.661223  
     174A      0.675490   175A      0.680951   176A      0.690121  
     177A      0.695226   178A      0.700766   179A      0.722002  
     180A      0.730625   181A      0.740464   182A      0.750927  
     183A      0.751195   184A      0.755963   185A      0.765848  
     186A      0.769234   187A      0.782217   188A      0.785482  
     189A      0.799400   190A      0.808416   191A      0.821445  
     192A      0.829688   193A      0.852684   194A      0.858855  
     195A      0.869036   196A      0.877566   197A      0.882000  
     198A      0.902876   199A      0.912792   200A      0.931630  
     201A      0.944794   202A      0.948207   203A      0.952482  
     204A      0.971081   205A      0.978887   206A      0.984353  
     207A      0.992761   208A      1.004851   209A      1.015418  
     210A      1.017605   211A      1.028923   212A      1.048483  
     213A      1.056210   214A      1.064635   215A      1.099649  
     216A      1.100931   217A      1.111599   218A      1.132740  
     219A      1.137491   220A      1.158295   221A      1.174594  
     222A      1.194540   223A      1.204571   224A      1.209053  
     225A      1.212330   226A      1.219407   227A      1.243335  
     228A      1.261170   229A      1.262987   230A      1.288924  
     231A      1.295905   232A      1.309289   233A      1.317230  
     234A      1.337843   235A      1.363567   236A      1.390768  
     237A      1.413254   238A      1.466517   239A      1.473488  
     240A      1.483772   241A      1.498829   242A      1.521547  
     243A      1.522562   244A      1.543832   245A      1.557413  
     246A      1.577115   247A      1.578678   248A      1.589349  
     249A      1.599131   250A      1.608005   251A      1.624802  
     252A      1.629375   253A      1.640276   254A      1.649579  
     255A      1.656488   256A      1.669127   257A      1.673794  
     258A      1.695598   259A      1.697353   260A      1.703544  
     261A      1.730575   262A      1.758604   263A      1.763529  
     264A      1.781012   265A      1.796016   266A      1.810475  
     267A      1.822561   268A      1.831331   269A      1.860571  
     270A      1.868688   271A      1.891344   272A      1.895351  
     273A      1.915386   274A      1.941483   275A      1.950527  
     276A      1.953176   277A      1.987743   278A      1.993546  
     279A      1.998427   280A      2.018707   281A      2.028139  
     282A      2.032621   283A      2.038232   284A      2.063600  
     285A      2.076039   286A      2.084498   287A      2.095270  
     288A      2.111383   289A      2.127310   290A      2.170165  
     291A      2.198074   292A      2.212002   293A      2.240409  
     294A      2.246351   295A      2.261969   296A      2.296530  
     297A      2.314604   298A      2.327682   299A      2.332452  
     300A      2.375950   301A      2.433500   302A      2.478610  
     303A      2.516909   304A      2.521024   305A      2.534147  
     306A      2.547079   307A      2.575610   308A      2.595143  
     309A      2.619727   310A      2.647690   311A      2.658602  
     312A      2.710416   313A      2.749297   314A      2.767967  
     315A      2.784766   316A      2.791019   317A      2.806499  
     318A      2.824885   319A      2.829391   320A      2.838901  
     321A      2.861151   322A      2.881269   323A      2.890918  
     324A      2.916239   325A      2.925740   326A      2.940460  
     327A      2.954568   328A      2.972670   329A      2.993189  
     330A      3.036508   331A      3.043385   332A      3.048312  
     333A      3.060496   334A      3.088367   335A      3.100017  
     336A      3.133456   337A      3.163979   338A      3.199652  
     339A      3.289311   340A      3.296262   341A      3.323178  
     342A      3.363857   343A      3.413547   344A      3.427531  
     345A      3.430310   346A      3.483593   347A      3.536373  
     348A      3.542624   349A      3.604157   350A      3.633437  
     351A      3.654088   352A      3.691291   353A      3.710338  
     354A      3.783460   355A      3.797691   356A      3.823344  
     357A      3.845321   358A      3.851961   359A      3.857165  
     360A      3.903116   361A      3.915148   362A      3.951550  
     363A      3.976926   364A      4.005724   365A      4.028116  
     366A      4.077136   367A      4.116746   368A      4.181836  
     369A      4.245789   370A      4.310214   371A      4.369584  
     372A      4.529402   373A      4.825575   374A      4.891834  
     375A      4.917044   376A      5.000643   377A      5.147764  
     378A      5.154630   379A      5.212073   380A      5.331097  
     381A      5.342776   382A      5.839154   383A      5.885352  
     384A      6.440231   385A      6.470163   386A      6.538697  
     387A      6.582939   388A      6.670452   389A      6.867309  
     390A      8.090669   391A     17.450835   392A     17.612300  
     393A     17.643821   394A     23.631942   395A     23.746072  
     396A     23.970745   397A     23.999797   398A     24.014766  
     399A     24.034317   400A     24.040584   401A     24.134855  
     402A     24.189356   403A     24.277767   404A     35.759569  
     405A     50.144488   406A     50.162931   407A     66.891776  
     408A     66.975159   409A    189.351531  

    Final Occupation by Irrep:
              A 
    DOCC [    62 ]

  @DF-RKS Final Energy: -1188.33274268532978

   => Energetics <=

    Nuclear Repulsion Energy =           1187.7961339912217227
    One-Electron Energy =               -3990.5534156839771640
    Two-Electron Energy =                1704.1757993497494681
    DFT Exchange-Correlation Energy =     -89.7376431856320238
    Empirical Dispersion Energy =          -0.0136171566915606
    VV10 Nonlocal Energy =                  0.0000000000000000
    Total Energy =                      -1188.3327426853295492

Computation Completed


Properties will be evaluated at   0.000000,   0.000000,   0.000000 [a0]

Properties computed using the SCF density matrix

  Nuclear Dipole Moment: [e a0]
     X:    25.7659      Y:     0.6142      Z:    -5.2150

  Electronic Dipole Moment: [e a0]
     X:   -22.6350      Y:    -0.9087      Z:     4.5716

  Dipole Moment: [e a0]
     X:     3.1309      Y:    -0.2945      Z:    -0.6433     Total:     3.2098

  Dipole Moment: [D]
     X:     7.9579      Y:    -0.7487      Z:    -1.6352     Total:     8.1586


*** tstop() called on cpu-spot-dy-c5n2xlarge-1 at Tue Jun 22 07:24:40 2021
Module time:
	user time   =     639.05 seconds =      10.65 minutes
	system time =      10.32 seconds =       0.17 minutes
	total time  =         88 seconds =       1.47 minutes
Total time:
	user time   =     639.05 seconds =      10.65 minutes
	system time =      10.32 seconds =       0.17 minutes
	total time  =         88 seconds =       1.47 minutes


Properties will be evaluated at   0.000000,   0.000000,   0.000000 [a0]
OEProp: No title given, name of density matrix used for the following properties is 'SCF density'


  Wiberg Bond Indices using Orthogonal Lowdin Orbitals:

  Irrep: 1 Size: 23 x 23

                 1                   2                   3                   4                   5

    1     0.00000000000000     1.31965919253143     0.10109384440995     0.01317429607516     0.01313404002945
    2     1.31965919253143     0.00000000000000     0.88424174354725     0.11069042843349     0.11072299151954
    3     0.10109384440995     0.88424174354725     0.00000000000000     1.36052319494396     1.36095655858824
    4     0.01317429607516     0.11069042843349     1.36052319494396     0.00000000000000     0.13795806455841
    5     0.01313404002945     0.11072299151954     1.36095655858824     0.13795806455841     0.00000000000000
    6     0.03401260875416     0.07395041785028     0.89676901051050     0.10910490000397     0.10887695037552
    7     0.11739043669019     0.03571446297552     0.09929993744179     0.01331777790748     0.01326855542510
    8     0.01507947318602     0.00372528231304     0.01338010501390     0.00199645419611     0.00197133641532
    9     0.01471300546211     0.00550949069956     0.00250668894184     0.00036642592565     0.00037740099959
   10     0.01742146963848     0.00308223579380     0.00148857317323     0.00043947311538     0.00043675426614
   11     0.13323133560796     0.02644324144336     0.00427579585729     0.00056596489256     0.00055857024151
   12     1.19077415011957     0.09714286367739     0.03110494852942     0.00446928106842     0.00443635109565
   13     0.00277819768497     0.00094954253825     0.00063835003173     0.00025104444431     0.00024940491974
   14     0.00047784247302     0.00016087228085     0.00009659690439     0.00002458198874     0.00002380436574
   15     0.24797719643364     2.29167891951776     0.15074970869612     0.03925455288257     0.03943551758175
   16     0.00495456684263     0.01575545397542     0.15991993145326     0.04272946445935     0.04261625266564
   17     0.00072491598198     0.00022815999067     0.00048443173421     0.00006700070082     0.00006387506774
   18     0.00129195912021     0.00048802604711     0.00210719620843     0.00031234951407     0.00031170864528
   19     0.91325653823576     0.07319533799282     0.01369606158451     0.00169438463843     0.00169905769083
   20     0.02324517375577     0.00229997913826     0.00072513524141     0.00011156855584     0.00010849294219
   21     0.00008795880529     0.00004109051399     0.00002385045609     0.00000848998437     0.00000715370901
   22     0.00005807827753     0.00002290483203     0.00004079177761     0.00000742981103     0.00000911384876
   23     0.00007829787270     0.00002620777508     0.00001323152585     0.00000206919511     0.00000250447521

                 6                   7                   8                   9                  10

    1     0.03401260875416     0.11739043669019     0.01507947318602     0.01471300546211     0.01742146963848
    2     0.07395041785028     0.03571446297552     0.00372528231304     0.00550949069956     0.00308223579380
    3     0.89676901051050     0.09929993744179     0.01338010501390     0.00250668894184     0.00148857317323
    4     0.10910490000397     0.01331777790748     0.00199645419611     0.00036642592565     0.00043947311538
    5     0.10887695037552     0.01326855542510     0.00197133641532     0.00037740099959     0.00043675426614
    6     0.00000000000000     1.06676207238118     0.12072194527286     0.02023400552151     0.01529936024529
    7     1.06676207238118     0.00000000000000     1.33812957716703     0.13142159149707     0.10873065736267
    8     0.12072194527286     1.33812957716703     0.00000000000000     1.50870771816605     0.13607887171197
    9     0.02023400552151     0.13142159149707     1.50870771816605     0.00000000000000     1.37480809010898
   10     0.01529936024529     0.10873065736267     0.13607887171197     1.37480809010898     0.00000000000000
   11     0.01560430894881     0.11952870116091     0.12170760005849     0.12641437905315     1.42726172807653
   12     0.11496534128709     1.28048652966144     0.12390144603303     0.10903735415839     0.13004024432429
   13     0.00587923573859     0.02017892299522     0.02510672974291     0.14289018869779     1.29839896838917
   14     0.00044018818174     0.00237203226116     0.00426601459300     0.04557750330632     0.08365340570401
   15     0.01527731732200     0.00923411286203     0.00107042334967     0.00475398899390     0.00199785040537
   16     2.31462884145790     0.16565573443199     0.07537783195635     0.00608985288976     0.01657908514095
   17     0.00149641444505     0.01240302408025     0.08325046522636     0.85983294415764     0.07443128602853
   18     0.02025397565905     0.07681914285437     0.85225740025388     0.08079720343678     0.01215886224219
   19     0.00256186628550     0.01258038316046     0.00170667723621     0.00133945523458     0.00198345083853
   20     0.00170248306165     0.01150054237693     0.00558983529964     0.01255725335543     0.07586631254103
   21     0.00014440090082     0.00060269922608     0.00059291944705     0.00870835214367     0.01444558300070
   22     0.00019087726682     0.00083346200548     0.00140919978744     0.01609569473541     0.01378540655085
   23     0.00003527945985     0.00022742136287     0.00034318392908     0.00286958085813     0.01277775440998

                11                  12                  13                  14                  15

    1     0.13323133560796     1.19077415011957     0.00277819768497     0.00047784247302     0.24797719643364
    2     0.02644324144336     0.09714286367739     0.00094954253825     0.00016087228085     2.29167891951776
    3     0.00427579585729     0.03110494852942     0.00063835003173     0.00009659690439     0.15074970869612
    4     0.00056596489256     0.00446928106842     0.00025104444431     0.00002458198874     0.03925455288257
    5     0.00055857024151     0.00443635109565     0.00024940491974     0.00002380436574     0.03943551758175
    6     0.01560430894881     0.11496534128709     0.00587923573859     0.00044018818174     0.01527731732200
    7     0.11952870116091     1.28048652966144     0.02017892299522     0.00237203226116     0.00923411286203
    8     0.12170760005849     0.12390144603303     0.02510672974291     0.00426601459300     0.00107042334967
    9     0.12641437905315     0.10903735415839     0.14289018869779     0.04557750330632     0.00475398899390
   10     1.42726172807653     0.13004024432429     1.29839896838917     0.08365340570401     0.00199785040537
   11     0.00000000000000     1.38196336834632     0.18148095741892     0.02012850594286     0.01218767155750
   12     1.38196336834632     0.00000000000000     0.02445336123944     0.00309288962645     0.03055956956551
   13     0.18148095741892     0.02445336123944     0.00000000000000     1.24432255826234     0.00071957358763
   14     0.02012850594286     0.00309288962645     1.24432255826234     0.00000000000000     0.00010943734100
   15     0.01218767155750     0.03055956956551     0.00071957358763     0.00010943734100     0.00000000000000
   16     0.00466858276681     0.04243030319576     0.00616555147297     0.00046109522101     0.00544576868430
   17     0.01212373492366     0.00528649402243     0.02091132403896     0.02017104275081     0.00017733284635
   18     0.00530276575672     0.01193101987352     0.00221448404698     0.00042324711528     0.00019374102521
   19     0.02029100557748     0.06556390390854     0.00034292649945     0.00007007332850     0.02865076471433
   20     0.85066377874381     0.07768003570525     0.03257944089773     0.00248690544565     0.00066210327870
   21     0.00231426337574     0.00055700378175     0.06439355818689     0.94263329442960     0.00003725537708
   22     0.00231366924517     0.00034611196184     0.06455162465278     0.93891251143281     0.00001231843686
   23     0.00202713752875     0.00044594900450     0.07407163753371     0.94228966145404     0.00001312786904

                16                  17                  18                  19                  20

    1     0.00495456684263     0.00072491598198     0.00129195912021     0.91325653823576     0.02324517375577
    2     0.01575545397542     0.00022815999067     0.00048802604711     0.07319533799282     0.00229997913826
    3     0.15991993145326     0.00048443173421     0.00210719620843     0.01369606158451     0.00072513524141
    4     0.04272946445935     0.00006700070082     0.00031234951407     0.00169438463843     0.00011156855584
    5     0.04261625266564     0.00006387506774     0.00031170864528     0.00169905769083     0.00010849294219
    6     2.31462884145790     0.00149641444505     0.02025397565905     0.00256186628550     0.00170248306165
    7     0.16565573443199     0.01240302408025     0.07681914285437     0.01258038316046     0.01150054237693
    8     0.07537783195635     0.08325046522636     0.85225740025388     0.00170667723621     0.00558983529964
    9     0.00608985288976     0.85983294415764     0.08079720343678     0.00133945523458     0.01255725335543
   10     0.01657908514095     0.07443128602853     0.01215886224219     0.00198345083853     0.07586631254103
   11     0.00466858276681     0.01212373492366     0.00530276575672     0.02029100557748     0.85066377874381
   12     0.04243030319576     0.00528649402243     0.01193101987352     0.06556390390854     0.07768003570525
   13     0.00616555147297     0.02091132403896     0.00221448404698     0.00034292649945     0.03257944089773
   14     0.00046109522101     0.02017104275081     0.00042324711528     0.00007007332850     0.00248690544565
   15     0.00544576868430     0.00017733284635     0.00019374102521     0.02865076471433     0.00066210327870
   16     0.00000000000000     0.00038211067442     0.02133162914869     0.00052322699532     0.00059736110671
   17     0.00038211067442     0.00000000000000     0.01031076943137     0.00010660886885     0.00117244147107
   18     0.02133162914869     0.01031076943137     0.00000000000000     0.00060734215857     0.00048164483359
   19     0.00052322699532     0.00010660886885     0.00060734215857     0.00000000000000     0.00646045185193
   20     0.00059736110671     0.00117244147107     0.00048164483359     0.00646045185193     0.00000000000000
   21     0.00016402753982     0.00279156033911     0.00004397356923     0.00001434923144     0.00025828656550
   22     0.00018525406927     0.00989379821402     0.00011315254517     0.00001114862669     0.00053224717464
   23     0.00003708579522     0.00114080281655     0.00004834176036     0.00000895445375     0.00026966635891

                21                  22                  23

    1     0.00008795880529     0.00005807827753     0.00007829787270
    2     0.00004109051399     0.00002290483203     0.00002620777508
    3     0.00002385045609     0.00004079177761     0.00001323152585
    4     0.00000848998437     0.00000742981103     0.00000206919511
    5     0.00000715370901     0.00000911384876     0.00000250447521
    6     0.00014440090082     0.00019087726682     0.00003527945985
    7     0.00060269922608     0.00083346200548     0.00022742136287
    8     0.00059291944705     0.00140919978744     0.00034318392908
    9     0.00870835214367     0.01609569473541     0.00286958085813
   10     0.01444558300070     0.01378540655085     0.01277775440998
   11     0.00231426337574     0.00231366924517     0.00202713752875
   12     0.00055700378175     0.00034611196184     0.00044594900450
   13     0.06439355818689     0.06455162465278     0.07407163753371
   14     0.94263329442960     0.93891251143281     0.94228966145404
   15     0.00003725537708     0.00001231843686     0.00001312786904
   16     0.00016402753982     0.00018525406927     0.00003708579522
   17     0.00279156033911     0.00989379821402     0.00114080281655
   18     0.00004397356923     0.00011315254517     0.00004834176036
   19     0.00001434923144     0.00001114862669     0.00000895445375
   20     0.00025828656550     0.00053224717464     0.00026966635891
   21     0.00000000000000     0.03805228904769     0.04187683278807
   22     0.03805228904769     0.00000000000000     0.04215427149587
   23     0.04187683278807     0.04215427149587     0.00000000000000



  Atomic Valences: 

 #  #
 Irrep: 1
      1:  4.1646146
      2:  5.0557288
      3:  5.0841357
      4:  1.8370692
      5:  1.8372245
      6:  4.9389118
      7:  4.6364578
      8:  4.4363705
      9:  4.4756082
     10:  4.8211654
     11:  4.4710571
     12:  4.7306685
     13:  3.2135276
     14:  4.2521941
     15:  2.8801983
     16:  2.9266990
     17:  1.1174505
     18:  1.0997999
     19:  1.1463640
     20:  1.1075511
     21:  1.1177992
     22:  1.1295314
     23:  1.1207590


    Psi4 stopped on: Tuesday, 22 June 2021 07:24AM
    Psi4 wall time for execution: 0:01:28.38

*** Psi4 exiting successfully. Buy a developer a beer!
