
    -----------------------------------------------------------------------
          Psi4: An Open-Source Ab Initio Electronic Structure Package
                               Psi4 1.3.2 release

                         Git: Rev {HEAD} ecbda83 


    R. M. Parrish, L. A. Burns, D. G. A. Smith, A. C. Simmonett,
    A. E. DePrince III, E. G. Hohenstein, U. Bozkaya, A. Yu. Sokolov,
    R. Di Remigio, R. M. Richard, J. F. Gonthier, A. M. James,
    H. R. McAlexander, A. Kumar, M. Saitow, X. Wang, B. P. Pritchard,
    P. Verma, H. F. Schaefer III, K. Patkowski, R. A. King, E. F. Valeev,
    F. A. Evangelista, J. M. Turney, T. D. Crawford, and C. D. Sherrill,
    J. Chem. Theory Comput. 13(7) pp 3185--3197 (2017).
    (doi: 10.1021/acs.jctc.7b00174)


                         Additional Contributions by
    P. Kraus, H. Kruse, M. H. Lechner, M. C. Schieber, R. A. Shaw,
    A. Alenaizan, R. Galvelis, Z. L. Glick, S. Lehtola, and J. P. Misiewicz

    -----------------------------------------------------------------------


    Psi4 started on: Tuesday, 22 June 2021 07:38AM

    Process ID: 31999
    Host:       cpu-spot-dy-c5n2xlarge-1
    PSIDATADIR: /fsx/users/francis/anaconda3/envs/poltype-dev/share/psi4
    Memory:     500.0 MiB
    Threads:    1
    
  ==> Input File <==

--------------------------------------------------------------------------
molecule { 
0 1
 N   -1.004726   -1.480652    0.299578
 C   -2.319081   -1.122853    0.442739
 C   -2.619989    0.393100    0.363751
 F   -3.618380    0.567753   -0.528852
 F   -3.072990    0.767865    1.590346
 C   -1.452359    1.346616   -0.008314
 C   -0.116774    0.751543   -0.115026
 C    0.995170    1.559490   -0.373818
 C    2.266359    1.026165   -0.485453
 C    2.451184   -0.359032   -0.348880
 C    1.349891   -1.177533   -0.073234
 C    0.075011   -0.632634    0.036164
 S    4.004170   -1.186610   -0.459893
 C    5.227578    0.136766   -0.632561
 O   -3.201354   -1.925964    0.638287
 O   -1.700040    2.520701   -0.170881
 H    3.101341    1.689933   -0.671359
 H    0.835185    2.628140   -0.481178
 H   -0.829178   -2.475398    0.376379
 H    1.491335   -2.248559    0.052130
 H    5.515085    0.548009    0.337531
 H    6.106484   -0.342044   -1.071931
 H    4.900968    0.919430   -1.318361
}
memory 16GB
set_num_threads(8)
psi4_io.set_default_path("/scratch/Psi4-ligand")
set freeze_core True
E, wfn = energy('wb97x-d/6-311++g**',return_wfn=True)
oeprop(wfn,"WIBERG_LOWDIN_INDICES")
clean()
--------------------------------------------------------------------------

  Memory set to  14.901 GiB by Python driver.
  Threads set to 8 by Python driver.

*** tstart() called on cpu-spot-dy-c5n2xlarge-1
*** at Tue Jun 22 07:38:55 2021

   => Loading Basis Set <=

    Name: 6-311++G**
    Role: ORBITAL
    Keyword: BASIS
    atoms 1             entry N          line   140 file /fsx/users/francis/anaconda3/envs/poltype-dev/share/psi4/basis/6-311ppgss.gbs 
    atoms 2-3, 6-12, 14 entry C          line   119 file /fsx/users/francis/anaconda3/envs/poltype-dev/share/psi4/basis/6-311ppgss.gbs 
    atoms 4-5           entry F          line   182 file /fsx/users/francis/anaconda3/envs/poltype-dev/share/psi4/basis/6-311ppgss.gbs 
    atoms 13            entry S          line   419 file /fsx/users/francis/anaconda3/envs/poltype-dev/share/psi4/basis/6-311ppgss.gbs 
    atoms 15-16         entry O          line   161 file /fsx/users/francis/anaconda3/envs/poltype-dev/share/psi4/basis/6-311ppgss.gbs 
    atoms 17-23         entry H          line    42 file /fsx/users/francis/anaconda3/envs/poltype-dev/share/psi4/basis/6-311ppgss.gbs 


         ---------------------------------------------------------
                                   SCF
               by Justin Turney, Rob Parrish, Andy Simmonett
                          and Daniel G. A. Smith
                              RKS Reference
                        8 Threads,  15258 MiB Core
         ---------------------------------------------------------

  ==> Geometry <==

    Molecular point group: c1
    Full point group: C1

    Geometry (in Angstrom), charge = 0, multiplicity = 1:

       Center              X                  Y                   Z               Mass       
    ------------   -----------------  -----------------  -----------------  -----------------
         N           -1.004726026383    -1.480651979677     0.299578042213    14.003074004430
         C           -2.319081026383    -1.122852979677     0.442739042213    12.000000000000
         C           -2.619989026383     0.393100020323     0.363751042213    12.000000000000
         F           -3.618380026383     0.567753020323    -0.528851957787    18.998403162730
         F           -3.072990026383     0.767865020323     1.590346042213    18.998403162730
         C           -1.452359026383     1.346616020323    -0.008313957787    12.000000000000
         C           -0.116774026383     0.751543020323    -0.115025957787    12.000000000000
         C            0.995169973617     1.559490020323    -0.373817957787    12.000000000000
         C            2.266358973617     1.026165020323    -0.485452957787    12.000000000000
         C            2.451183973617    -0.359031979677    -0.348879957787    12.000000000000
         C            1.349890973617    -1.177532979677    -0.073233957787    12.000000000000
         C            0.075010973617    -0.632633979677     0.036164042213    12.000000000000
         S            4.004169973617    -1.186609979677    -0.459892957787    31.972071174400
         C            5.227577973617     0.136766020323    -0.632560957787    12.000000000000
         O           -3.201354026383    -1.925963979677     0.638287042213    15.994914619570
         O           -1.700040026383     2.520701020323    -0.170880957787    15.994914619570
         H            3.101340973617     1.689933020323    -0.671358957787     1.007825032230
         H            0.835184973617     2.628140020323    -0.481177957787     1.007825032230
         H           -0.829178026383    -2.475397979677     0.376379042213     1.007825032230
         H            1.491334973617    -2.248558979677     0.052130042213     1.007825032230
         H            5.515084973617     0.548009020323     0.337531042213     1.007825032230
         H            6.106483973617    -0.342043979677    -1.071930957787     1.007825032230
         H            4.900967973617     0.919430020323    -1.318360957787     1.007825032230

  Running in c1 symmetry.

  Rotational constants: A =      0.03958  B =      0.00828  C =      0.00713 [cm^-1]
  Rotational constants: A =   1186.66037  B =    248.32248  C =    213.72929 [MHz]
  Nuclear repulsion = 1187.701128230279437

  Charge       = 0
  Multiplicity = 1
  Electrons    = 124
  Nalpha       = 62
  Nbeta        = 62

  ==> Algorithm <==

  SCF Algorithm Type is DF.
  DIIS enabled.
  MOM disabled.
  Fractional occupation disabled.
  Guess Type is SAD.
  Energy threshold   = 1.00e-06
  Density threshold  = 1.00e-06
  Integral threshold = 0.00e+00

  ==> Primary Basis <==

  Basis Set: 6-311++G**
    Blend: 6-311++G**
    Number of shells: 199
    Number of basis function: 409
    Number of Cartesian functions: 425
    Spherical Harmonics?: true
    Max angular momentum: 2

  ==> DFT Potential <==

   => Composite Functional: WB97X-D <= 

    wB97X-D Hyb-GGA Exchange-Correlation Functional

    J.-D. Chai and M. Head-Gordon, Phys. Chem. Chem. Phys. 10, 6615 (2008)

    Deriv               =              1
    GGA                 =           TRUE
    Meta                =          FALSE

    Exchange Hybrid     =           TRUE
    MP2 Hybrid          =          FALSE

   => Exchange-Correlation Functionals <=

    1.0000   wB97D range-separated functional

   => Exact (HF) Exchange <=

    0.7780            HF,LR [omega = 0.2000]
    0.2220               HF 

   => Molecular Quadrature <=

    Radial Scheme          =       TREUTLER
    Pruning Scheme         =           FLAT
    Nuclear Scheme         =       TREUTLER

    BS radius alpha        =              1
    Pruning alpha          =              1
    Radial Points          =             75
    Spherical Points       =            302
    Total Points           =         520870
    Total Blocks           =           3880
    Max Points             =            256
    Max Functions          =            315

   => WB97X-D: Empirical Dispersion <=

    Chai and Head-Gordon Dispersion Correction
    Chai, J.-D.; Head-Gordon, M. (2010), J. Chem. Phys., 132: 6615-6620

        s6 =       1.000000

   => Loading Basis Set <=

    Name: (6-311++G** AUX)
    Role: JKFIT
    Keyword: DF_BASIS_SCF
    atoms 1             entry N          line   224 file /fsx/users/francis/anaconda3/envs/poltype-dev/share/psi4/basis/aug-cc-pvtz-jkfit.gbs 
    atoms 2-3, 6-12, 14 entry C          line   162 file /fsx/users/francis/anaconda3/envs/poltype-dev/share/psi4/basis/aug-cc-pvtz-jkfit.gbs 
    atoms 4-5           entry F          line   348 file /fsx/users/francis/anaconda3/envs/poltype-dev/share/psi4/basis/aug-cc-pvtz-jkfit.gbs 
    atoms 13            entry S          line   730 file /fsx/users/francis/anaconda3/envs/poltype-dev/share/psi4/basis/aug-cc-pvtz-jkfit.gbs 
    atoms 15-16         entry O          line   286 file /fsx/users/francis/anaconda3/envs/poltype-dev/share/psi4/basis/aug-cc-pvtz-jkfit.gbs 
    atoms 17-23         entry H          line    70 file /fsx/users/francis/anaconda3/envs/poltype-dev/share/psi4/basis/aug-cc-pvtz-jkfit.gbs 

  ==> Pre-Iterations <==

   -------------------------------------------------------
    Irrep   Nso     Nmo     Nalpha   Nbeta   Ndocc  Nsocc
   -------------------------------------------------------
     A        409     409       0       0       0       0
   -------------------------------------------------------
    Total     409     409      62      62      62       0
   -------------------------------------------------------

  ==> Integral Setup <==

  ==> DiskDFJK: Density-Fitted J/K Matrices <==

    J tasked:                  Yes
    K tasked:                  Yes
    wK tasked:                 Yes
    Omega:               2.000E-01
    OpenMP threads:              8
    Integrals threads:           8
    Memory [MiB]:             7969
    Algorithm:                Core
    Integral Cache:           NONE
    Schwarz Cutoff:          1E-12
    Fitting Condition:       1E-10

   => Auxiliary Basis Set <=

  Basis Set: (6-311++G** AUX)
    Blend: AUG-CC-PVTZ-JKFIT
    Number of shells: 590
    Number of basis function: 2028
    Number of Cartesian functions: 2530
    Spherical Harmonics?: true
    Max angular momentum: 4

  Cached 100.0% of DFT collocation blocks in 3.393 [GiB].

  Minimum eigenvalue in the overlap matrix is 2.3740379076E-07.
  Using Symmetric Orthogonalization.

  SCF Guess: Superposition of Atomic Densities via on-the-fly atomic UHF.

  ==> Iterations <==

                           Total Energy        Delta E     RMS |[F,P]|

   @DF-RKS iter SAD: -1187.91074228431034   -1.18791e+03   0.00000e+00 
   @DF-RKS iter   1: -1187.70864147922634    2.02101e-01   2.91313e-03 DIIS
   @DF-RKS iter   2: -1187.75582296587027   -4.71815e-02   2.98373e-03 DIIS
   @DF-RKS iter   3: -1188.30391340707342   -5.48090e-01   6.53982e-04 DIIS
   @DF-RKS iter   4: -1188.32777146679541   -2.38581e-02   2.39759e-04 DIIS
   @DF-RKS iter   5: -1188.33184349504882   -4.07203e-03   6.25264e-05 DIIS
   @DF-RKS iter   6: -1188.33227850195590   -4.35007e-04   1.88336e-05 DIIS
   @DF-RKS iter   7: -1188.33233474948497   -5.62475e-05   8.02850e-06 DIIS
   @DF-RKS iter   8: -1188.33235119490860   -1.64454e-05   3.28398e-06 DIIS
   @DF-RKS iter   9: -1188.33235430235527   -3.10745e-06   1.49692e-06 DIIS
   @DF-RKS iter  10: -1188.33235465287157   -3.50516e-07   5.77210e-07 DIIS
  Energy and wave function converged.


  ==> Post-Iterations <==

    Orbital Energies [Eh]
    ---------------------

    Doubly Occupied:                                                      

       1A    -89.054116     2A    -24.839326     3A    -24.838512  
       4A    -19.269223     5A    -19.260201     6A    -14.516793  
       7A    -10.484655     8A    -10.436303     9A    -10.411114  
      10A    -10.390948    11A    -10.372662    12A    -10.341638  
      13A    -10.334669    14A    -10.331238    15A    -10.330853  
      16A    -10.324422    17A     -8.094728    18A     -6.044222  
      19A     -6.039744    20A     -6.033893    21A     -1.389230  
      22A     -1.327825    23A     -1.192225    24A     -1.180179  
      25A     -1.098312    26A     -1.006548    27A     -0.944706  
      28A     -0.906596    29A     -0.888727    30A     -0.868835  
      31A     -0.800454    32A     -0.765722    33A     -0.753482  
      34A     -0.745839    35A     -0.697391    36A     -0.684090  
      37A     -0.669865    38A     -0.646842    39A     -0.630458  
      40A     -0.593257    41A     -0.588155    42A     -0.569189  
      43A     -0.563845    44A     -0.557942    45A     -0.556776  
      46A     -0.553963    47A     -0.550114    48A     -0.534856  
      49A     -0.518696    50A     -0.516342    51A     -0.508276  
      52A     -0.498865    53A     -0.490972    54A     -0.488545  
      55A     -0.475582    56A     -0.443743    57A     -0.433988  
      58A     -0.399185    59A     -0.395241    60A     -0.364095  
      61A     -0.341811    62A     -0.319818  

    Virtual:                                                              

      63A     -0.043464    64A      0.012560    65A      0.025516  
      66A      0.033648    67A      0.046592    68A      0.052849  
      69A      0.059831    70A      0.064892    71A      0.069908  
      72A      0.073360    73A      0.079478    74A      0.085819  
      75A      0.096292    76A      0.099118    77A      0.103677  
      78A      0.105108    79A      0.110957    80A      0.119538  
      81A      0.126234    82A      0.128278    83A      0.130938  
      84A      0.135940    85A      0.141898    86A      0.149026  
      87A      0.152723    88A      0.155612    89A      0.165043  
      90A      0.167368    91A      0.170639    92A      0.174235  
      93A      0.174901    94A      0.175913    95A      0.181370  
      96A      0.188698    97A      0.192560    98A      0.196228  
      99A      0.199117   100A      0.205131   101A      0.205674  
     102A      0.208765   103A      0.212765   104A      0.216385  
     105A      0.220470   106A      0.227814   107A      0.229866  
     108A      0.234836   109A      0.239414   110A      0.248233  
     111A      0.250127   112A      0.255333   113A      0.263066  
     114A      0.265138   115A      0.271896   116A      0.274902  
     117A      0.279736   118A      0.285534   119A      0.286204  
     120A      0.293296   121A      0.299507   122A      0.303872  
     123A      0.305531   124A      0.312441   125A      0.316229  
     126A      0.320684   127A      0.329650   128A      0.332701  
     129A      0.340760   130A      0.343851   131A      0.347658  
     132A      0.352542   133A      0.358246   134A      0.359725  
     135A      0.366609   136A      0.372005   137A      0.374917  
     138A      0.381354   139A      0.387795   140A      0.389978  
     141A      0.397250   142A      0.403763   143A      0.408097  
     144A      0.412544   145A      0.421897   146A      0.432616  
     147A      0.434030   148A      0.437945   149A      0.444717  
     150A      0.449910   151A      0.462305   152A      0.470273  
     153A      0.473707   154A      0.480511   155A      0.498012  
     156A      0.502452   157A      0.513703   158A      0.529837  
     159A      0.536560   160A      0.544375   161A      0.548638  
     162A      0.560188   163A      0.576951   164A      0.588473  
     165A      0.603147   166A      0.605055   167A      0.614050  
     168A      0.623325   169A      0.634864   170A      0.636864  
     171A      0.644063   172A      0.654635   173A      0.658511  
     174A      0.662985   175A      0.678386   176A      0.687689  
     177A      0.695340   178A      0.708718   179A      0.722708  
     180A      0.729871   181A      0.742155   182A      0.746411  
     183A      0.752691   184A      0.754810   185A      0.764268  
     186A      0.769918   187A      0.780332   188A      0.786252  
     189A      0.802999   190A      0.804577   191A      0.822242  
     192A      0.830423   193A      0.852760   194A      0.865379  
     195A      0.874017   196A      0.876830   197A      0.893061  
     198A      0.904417   199A      0.916114   200A      0.934255  
     201A      0.942480   202A      0.947525   203A      0.951830  
     204A      0.970320   205A      0.972807   206A      0.984597  
     207A      0.997305   208A      0.999920   209A      1.013045  
     210A      1.029296   211A      1.034948   212A      1.046133  
     213A      1.055626   214A      1.063721   215A      1.095780  
     216A      1.103319   217A      1.115677   218A      1.130427  
     219A      1.141563   220A      1.163132   221A      1.177250  
     222A      1.190431   223A      1.196034   224A      1.205478  
     225A      1.215505   226A      1.222576   227A      1.252705  
     228A      1.262056   229A      1.272991   230A      1.293603  
     231A      1.296215   232A      1.315535   233A      1.319495  
     234A      1.331732   235A      1.363825   236A      1.390248  
     237A      1.411208   238A      1.468788   239A      1.475689  
     240A      1.489319   241A      1.499028   242A      1.523830  
     243A      1.525024   244A      1.544159   245A      1.561748  
     246A      1.575275   247A      1.582042   248A      1.590042  
     249A      1.601386   250A      1.609118   251A      1.618789  
     252A      1.625620   253A      1.638756   254A      1.649796  
     255A      1.657607   256A      1.668662   257A      1.673066  
     258A      1.694027   259A      1.699287   260A      1.707857  
     261A      1.729957   262A      1.753108   263A      1.763381  
     264A      1.786225   265A      1.798430   266A      1.801953  
     267A      1.822462   268A      1.830767   269A      1.854270  
     270A      1.865512   271A      1.888583   272A      1.894780  
     273A      1.914871   274A      1.939372   275A      1.950641  
     276A      1.952477   277A      1.990416   278A      1.999419  
     279A      2.002287   280A      2.015481   281A      2.031474  
     282A      2.036917   283A      2.049690   284A      2.065721  
     285A      2.078547   286A      2.086772   287A      2.096252  
     288A      2.120549   289A      2.126547   290A      2.168212  
     291A      2.203152   292A      2.210276   293A      2.234523  
     294A      2.245981   295A      2.275756   296A      2.290231  
     297A      2.314844   298A      2.328391   299A      2.335418  
     300A      2.368209   301A      2.433333   302A      2.479624  
     303A      2.511258   304A      2.521243   305A      2.532591  
     306A      2.547748   307A      2.570026   308A      2.589893  
     309A      2.627691   310A      2.650990   311A      2.659069  
     312A      2.702999   313A      2.747330   314A      2.770776  
     315A      2.786826   316A      2.791461   317A      2.805999  
     318A      2.826542   319A      2.829958   320A      2.841076  
     321A      2.865697   322A      2.882143   323A      2.895271  
     324A      2.911083   325A      2.927431   326A      2.940914  
     327A      2.958655   328A      2.973623   329A      2.993663  
     330A      3.019807   331A      3.042554   332A      3.050733  
     333A      3.060326   334A      3.088080   335A      3.103318  
     336A      3.133924   337A      3.164351   338A      3.195672  
     339A      3.290420   340A      3.296280   341A      3.329630  
     342A      3.364823   343A      3.412269   344A      3.429269  
     345A      3.432057   346A      3.486336   347A      3.535569  
     348A      3.543533   349A      3.604653   350A      3.633816  
     351A      3.654272   352A      3.690152   353A      3.710345  
     354A      3.782255   355A      3.793451   356A      3.826932  
     357A      3.847558   358A      3.852859   359A      3.863406  
     360A      3.905202   361A      3.917944   362A      3.953007  
     363A      3.976724   364A      4.006660   365A      4.028409  
     366A      4.077999   367A      4.120235   368A      4.186563  
     369A      4.245959   370A      4.305977   371A      4.369819  
     372A      4.529365   373A      4.825751   374A      4.892581  
     375A      4.917368   376A      5.008062   377A      5.150077  
     378A      5.157011   379A      5.210278   380A      5.331358  
     381A      5.342016   382A      5.840100   383A      5.885600  
     384A      6.446160   385A      6.476078   386A      6.533754  
     387A      6.578323   388A      6.667848   389A      6.871833  
     390A      8.095039   391A     17.438801   392A     17.620061  
     393A     17.651209   394A     23.631390   395A     23.746563  
     396A     23.970994   397A     24.003292   398A     24.016953  
     399A     24.035987   400A     24.039113   401A     24.134777  
     402A     24.190507   403A     24.277465   404A     35.759100  
     405A     50.143952   406A     50.163069   407A     66.894554  
     408A     66.974506   409A    189.357590  

    Final Occupation by Irrep:
              A 
    DOCC [    62 ]

  @DF-RKS Final Energy: -1188.33235465287157

   => Energetics <=

    Nuclear Repulsion Energy =           1187.7011282302794370
    One-Electron Energy =               -3990.3745897517646881
    Two-Electron Energy =                1704.0935577857842418
    DFT Exchange-Correlation Energy =     -89.7389055890274108
    Empirical Dispersion Energy =          -0.0135453281429421
    VV10 Nonlocal Energy =                  0.0000000000000000
    Total Energy =                      -1188.3323546528715724

Computation Completed


Properties will be evaluated at   0.000000,   0.000000,   0.000000 [a0]

Properties computed using the SCF density matrix

  Nuclear Dipole Moment: [e a0]
     X:    26.1979      Y:    -0.6096      Z:    -3.6153

  Electronic Dipole Moment: [e a0]
     X:   -22.9345      Y:     0.1588      Z:     3.2372

  Dipole Moment: [e a0]
     X:     3.2634      Y:    -0.4508      Z:    -0.3781     Total:     3.3160

  Dipole Moment: [D]
     X:     8.2946      Y:    -1.1458      Z:    -0.9609     Total:     8.4283


*** tstop() called on cpu-spot-dy-c5n2xlarge-1 at Tue Jun 22 07:40:24 2021
Module time:
	user time   =     641.01 seconds =      10.68 minutes
	system time =      10.76 seconds =       0.18 minutes
	total time  =         89 seconds =       1.48 minutes
Total time:
	user time   =     641.01 seconds =      10.68 minutes
	system time =      10.76 seconds =       0.18 minutes
	total time  =         89 seconds =       1.48 minutes


Properties will be evaluated at   0.000000,   0.000000,   0.000000 [a0]
OEProp: No title given, name of density matrix used for the following properties is 'SCF density'


  Wiberg Bond Indices using Orthogonal Lowdin Orbitals:

  Irrep: 1 Size: 23 x 23

                 1                   2                   3                   4                   5

    1     0.00000000000000     1.31999059233852     0.10118427572547     0.01230308932418     0.01439709340495
    2     1.31999059233852     0.00000000000000     0.88416127862496     0.10996198692099     0.11146489671670
    3     0.10118427572547     0.88416127862496     0.00000000000000     1.37145966296407     1.34913626776643
    4     0.01230308932418     0.10996198692099     1.37145966296407     0.00000000000000     0.13779081924309
    5     0.01439709340495     0.11146489671670     1.34913626776643     0.13779081924309     0.00000000000000
    6     0.03387358441868     0.07402595980474     0.89721804386333     0.10775688220978     0.11009209281173
    7     0.11660061864550     0.03551202017988     0.09965481613095     0.01269207020859     0.01433973932791
    8     0.01510696354414     0.00372105263786     0.01344038662486     0.00197414480101     0.00207058957506
    9     0.01441918875036     0.00535310940592     0.00253393924124     0.00038820094165     0.00037628677533
   10     0.01735054272164     0.00307214868666     0.00149334321274     0.00036862370414     0.00053052443775
   11     0.13410547386803     0.02682381322608     0.00433599288745     0.00053294967412     0.00066906531184
   12     1.18963208360993     0.09709216740455     0.03117050396516     0.00401516256716     0.00513500750658
   13     0.00284725347905     0.00102781156186     0.00070382396549     0.00023588178772     0.00034905511316
   14     0.00047855323530     0.00016680788756     0.00009258516919     0.00001719620040     0.00002191756714
   15     0.24794653592945     2.29157028051648     0.15075013279660     0.04112807873520     0.03743131937957
   16     0.00482275655102     0.01580021540426     0.15990865153694     0.04424429274410     0.04073092504242
   17     0.00071327381691     0.00022327117227     0.00047834930316     0.00006955106039     0.00006052819519
   18     0.00129538890346     0.00048778323033     0.00209896279930     0.00033873250119     0.00029230189021
   19     0.91340464901589     0.07319797176865     0.01371919215235     0.00178299368045     0.00162649823169
   20     0.02335972991184     0.00232222715079     0.00072957105302     0.00011403594677     0.00010788368870
   21     0.00009345547169     0.00004378066379     0.00002637447511     0.00000692287295     0.00001215355620
   22     0.00008067992509     0.00002934497264     0.00001433937067     0.00000196851971     0.00000368395354
   23     0.00008749125093     0.00003202920068     0.00004440923236     0.00000790659111     0.00000820910539

                 6                   7                   8                   9                  10

    1     0.03387358441868     0.11660061864550     0.01510696354414     0.01441918875036     0.01735054272164
    2     0.07402595980474     0.03551202017988     0.00372105263786     0.00535310940592     0.00307214868666
    3     0.89721804386333     0.09965481613095     0.01344038662486     0.00253393924124     0.00149334321274
    4     0.10775688220978     0.01269207020859     0.00197414480101     0.00038820094165     0.00036862370414
    5     0.11009209281173     0.01433973932791     0.00207058957506     0.00037628677533     0.00053052443775
    6     0.00000000000000     1.06813360045517     0.12105496036886     0.02055629287230     0.01514676147501
    7     1.06813360045517     0.00000000000000     1.34178752284280     0.13186134911129     0.10751487887264
    8     0.12105496036886     1.34178752284280     0.00000000000000     1.50481445928206     0.13592258635668
    9     0.02055629287230     0.13186134911129     1.50481445928206     0.00000000000000     1.37328854425516
   10     0.01514676147501     0.10751487887264     0.13592258635668     1.37328854425516     0.00000000000000
   11     0.01583749699999     0.11951379709968     0.12118654359112     0.12536051634420     1.41571718612982
   12     0.11430688357475     1.27389135702375     0.12400408208611     0.10743381292611     0.12958323917596
   13     0.00663705534084     0.02218385324217     0.02531950236355     0.14369066701323     1.30844786501510
   14     0.00032681292284     0.00165973595518     0.00425996379773     0.04649149407469     0.08222740569554
   15     0.01529760684614     0.00896692974472     0.00104912526224     0.00455697967686     0.00198190052865
   16     2.31339097235391     0.16613292834074     0.07556202988876     0.00630940800985     0.01631946023722
   17     0.00149597966772     0.01234401270113     0.08357446600747     0.85981151958497     0.07414833553028
   18     0.02018831055748     0.07683347272104     0.85220728706584     0.08072954685045     0.01214684221318
   19     0.00256154649459     0.01255726126405     0.00171148753365     0.00132994094176     0.00198406030673
   20     0.00169932567903     0.01148627026028     0.00556822574353     0.01255604726366     0.07570644963290
   21     0.00017410244723     0.00060661521895     0.00041329964413     0.00708737997735     0.01075239049531
   22     0.00003553089449     0.00017419458641     0.00028267978234     0.00279804658864     0.01217214223907
   23     0.00016555398342     0.00083660074147     0.00176902542330     0.02015752303558     0.01756685690182

                11                  12                  13                  14                  15

    1     0.13410547386803     1.18963208360993     0.00284725347905     0.00047855323530     0.24794653592945
    2     0.02682381322608     0.09709216740455     0.00102781156186     0.00016680788756     2.29157028051648
    3     0.00433599288745     0.03117050396516     0.00070382396549     0.00009258516919     0.15075013279660
    4     0.00053294967412     0.00401516256716     0.00023588178772     0.00001719620040     0.04112807873520
    5     0.00066906531184     0.00513500750658     0.00034905511316     0.00002191756714     0.03743131937957
    6     0.01583749699999     0.11430688357475     0.00663705534084     0.00032681292284     0.01529760684614
    7     0.11951379709968     1.27389135702375     0.02218385324217     0.00165973595518     0.00896692974472
    8     0.12118654359112     0.12400408208611     0.02531950236355     0.00425996379773     0.00104912526224
    9     0.12536051634420     0.10743381292611     0.14369066701323     0.04649149407469     0.00455697967686
   10     1.41571718612982     0.12958323917596     1.30844786501510     0.08222740569554     0.00198190052865
   11     0.00000000000000     1.39149554352336     0.18264835362318     0.01870880337320     0.01256462962928
   12     1.39149554352336     0.00000000000000     0.02579862409087     0.00313702130232     0.03049992195620
   13     0.18264835362318     0.02579862409087     0.00000000000000     1.24328697431715     0.00083538277163
   14     0.01870880337320     0.00313702130232     1.24328697431715     0.00000000000000     0.00010021435230
   15     0.01256462962928     0.03049992195620     0.00083538277163     0.00010021435230     0.00000000000000
   16     0.00482291966898     0.04163544346223     0.00698292704941     0.00026855088550     0.00543340345106
   17     0.01217039985832     0.00523818585367     0.02045578763568     0.02225252369495     0.00016970978031
   18     0.00530262302498     0.01196707097035     0.00217335623248     0.00044421367384     0.00019348496850
   19     0.02034553205260     0.06549614910825     0.00033651330089     0.00006809135247     0.02861040920065
   20     0.85033555777891     0.07795658249857     0.03255122952442     0.00257615233699     0.00067309509845
   21     0.00212260399926     0.00059608437958     0.06726006685084     0.94500392666220     0.00004488055361
   22     0.00200864010869     0.00048103470399     0.07449015194812     0.94219981723341     0.00001683903883
   23     0.00220635053418     0.00045122407433     0.05992397170285     0.93410641813076     0.00002058131142

                16                  17                  18                  19                  20

    1     0.00482275655102     0.00071327381691     0.00129538890346     0.91340464901589     0.02335972991184
    2     0.01580021540426     0.00022327117227     0.00048778323033     0.07319797176865     0.00232222715079
    3     0.15990865153694     0.00047834930316     0.00209896279930     0.01371919215235     0.00072957105302
    4     0.04424429274410     0.00006955106039     0.00033873250119     0.00178299368045     0.00011403594677
    5     0.04073092504242     0.00006052819519     0.00029230189021     0.00162649823169     0.00010788368870
    6     2.31339097235391     0.00149597966772     0.02018831055748     0.00256154649459     0.00169932567903
    7     0.16613292834074     0.01234401270113     0.07683347272104     0.01255726126405     0.01148627026028
    8     0.07556202988876     0.08357446600747     0.85220728706584     0.00171148753365     0.00556822574353
    9     0.00630940800985     0.85981151958497     0.08072954685045     0.00132994094176     0.01255604726366
   10     0.01631946023722     0.07414833553028     0.01214684221318     0.00198406030673     0.07570644963290
   11     0.00482291966898     0.01217039985832     0.00530262302498     0.02034553205260     0.85033555777891
   12     0.04163544346223     0.00523818585367     0.01196707097035     0.06549614910825     0.07795658249857
   13     0.00698292704941     0.02045578763568     0.00217335623248     0.00033651330089     0.03255122952442
   14     0.00026855088550     0.02225252369495     0.00044421367384     0.00006809135247     0.00257615233699
   15     0.00543340345106     0.00016970978031     0.00019348496850     0.02861040920065     0.00067309509845
   16     0.00000000000000     0.00038998171343     0.02105301643944     0.00051838078553     0.00060035280421
   17     0.00038998171343     0.00000000000000     0.01042581732765     0.00010681145551     0.00117766304014
   18     0.02105301643944     0.01042581732765     0.00000000000000     0.00060928575962     0.00047904136950
   19     0.00051838078553     0.00010681145551     0.00060928575962     0.00000000000000     0.00649294630579
   20     0.00060035280421     0.00117766304014     0.00047904136950     0.00649294630579     0.00000000000000
   21     0.00019044321327     0.00280972149189     0.00003954972892     0.00001052831591     0.00031113025472
   22     0.00002407008877     0.00127662807899     0.00004923211152     0.00000877280935     0.00029681352361
   23     0.00016160521764     0.01225446995859     0.00013875736236     0.00001491522663     0.00052326472155

                21                  22                  23

    1     0.00009345547169     0.00008067992509     0.00008749125093
    2     0.00004378066379     0.00002934497264     0.00003202920068
    3     0.00002637447511     0.00001433937067     0.00004440923236
    4     0.00000692287295     0.00000196851971     0.00000790659111
    5     0.00001215355620     0.00000368395354     0.00000820910539
    6     0.00017410244723     0.00003553089449     0.00016555398342
    7     0.00060661521895     0.00017419458641     0.00083660074147
    8     0.00041329964413     0.00028267978234     0.00176902542330
    9     0.00708737997735     0.00279804658864     0.02015752303558
   10     0.01075239049531     0.01217214223907     0.01756685690182
   11     0.00212260399926     0.00200864010869     0.00220635053418
   12     0.00059608437958     0.00048103470399     0.00045122407433
   13     0.06726006685084     0.07449015194812     0.05992397170285
   14     0.94500392666220     0.94219981723341     0.93410641813076
   15     0.00004488055361     0.00001683903883     0.00002058131142
   16     0.00019044321327     0.00002407008877     0.00016160521764
   17     0.00280972149189     0.00127662807899     0.01225446995859
   18     0.00003954972892     0.00004923211152     0.00013875736236
   19     0.00001052831591     0.00000877280935     0.00001491522663
   20     0.00031113025472     0.00029681352361     0.00052326472155
   21     0.00000000000000     0.04169251494323     0.03816320908307
   22     0.04169251494323     0.00000000000000     0.04260136006580
   23     0.03816320908307     0.04260136006580     0.00000000000000



  Atomic Valences: 

 #  #
 Irrep: 1
      1:  4.1640933
      2:  5.0560805
      3:  5.0843549
      4:  1.8471912
      5:  1.8266469
      6:  4.9399754
      7:  4.6352836
      8:  4.4368004
      9:  4.4719043
     10:  4.8134421
     11:  4.4688148
     12:  4.7310172
     13:  3.2281861
     14:  4.2478952
     15:  2.8798414
     16:  2.9253027
     17:  1.1216470
     18:  1.0994941
     19:  1.1464939
     20:  1.1076236
     21:  1.1174611
     22:  1.1207385
     23:  1.1312417


    Psi4 stopped on: Tuesday, 22 June 2021 07:40AM
    Psi4 wall time for execution: 0:01:28.69

*** Psi4 exiting successfully. Buy a developer a beer!
