
    -----------------------------------------------------------------------
          Psi4: An Open-Source Ab Initio Electronic Structure Package
                               Psi4 1.3.2 release

                         Git: Rev {HEAD} ecbda83 


    R. M. Parrish, L. A. Burns, D. G. A. Smith, A. C. Simmonett,
    A. E. DePrince III, E. G. Hohenstein, U. Bozkaya, A. Yu. Sokolov,
    R. Di Remigio, R. M. Richard, J. F. Gonthier, A. M. James,
    H. R. McAlexander, A. Kumar, M. Saitow, X. Wang, B. P. Pritchard,
    P. Verma, H. F. Schaefer III, K. Patkowski, R. A. King, E. F. Valeev,
    F. A. Evangelista, J. M. Turney, T. D. Crawford, and C. D. Sherrill,
    J. Chem. Theory Comput. 13(7) pp 3185--3197 (2017).
    (doi: 10.1021/acs.jctc.7b00174)


                         Additional Contributions by
    P. Kraus, H. Kruse, M. H. Lechner, M. C. Schieber, R. A. Shaw,
    A. Alenaizan, R. Galvelis, Z. L. Glick, S. Lehtola, and J. P. Misiewicz

    -----------------------------------------------------------------------


    Psi4 started on: Tuesday, 22 June 2021 03:41AM

    Process ID: 22970
    Host:       cpu-spot-dy-c5n2xlarge-1
    PSIDATADIR: /fsx/users/francis/anaconda3/envs/poltype-dev/share/psi4
    Memory:     500.0 MiB
    Threads:    1
    
  ==> Input File <==

--------------------------------------------------------------------------
molecule { 
0 1
 N   -1.067043   -1.479564    0.223183
 C   -2.381202   -1.139762    0.410614
 C   -2.707431    0.390051    0.365432
 F   -3.653208    0.582709   -0.616763
 F   -3.267939    0.729067    1.576585
 C   -1.516933    1.373048    0.091164
 C   -0.169129    0.785930   -0.087276
 C    0.941278    1.621920   -0.334649
 C    2.224367    1.087718   -0.511220
 C    2.435188   -0.317305   -0.441365
 C    1.322309   -1.149659   -0.184820
 C    0.031491   -0.619521   -0.014410
 S    3.989553   -1.169400   -0.603841
 C    5.304922    0.075967   -0.741418
 O   -3.222538   -2.005895    0.601428
 O   -1.709407    2.583916    0.032170
 H    3.038098    1.779377   -0.720775
 H    0.773823    2.698361   -0.386600
 H   -0.921375   -2.478949    0.266096
 H    1.466421   -2.228946   -0.112630
 H    4.999080    1.022605   -0.290852
 H    6.197666   -0.297004   -0.230153
 H    5.530037    0.233280   -1.800865
}
set optking { 
  frozen_dihedral = ("
    11 10 13 14
    9 10 13 14
    21 14 13 10
  ")
}
set {
  geom_maxiter 400
  g_convergence GAU_LOOSE
  dynamic_level 1
}
memory 16GB
set_num_threads(8)
psi4_io.set_default_path("/scratch/Psi4-ligand")
for _ in range(1):
  try:
    set opt_coordinates both
    optimize('wb97x-d/6-31+G*')
    break
  except OptimizationConvergenceError:
    break
  else:
    try:
      set opt_coordinates cartesian
      optimize('wb97x-d/6-31+G*')
      break
    except OptimizationConvergenceError:
      pass
clean()
--------------------------------------------------------------------------

  Memory set to  14.901 GiB by Python driver.
  Threads set to 8 by Python driver.
gradient() will perform analytic gradient computation.

*** tstart() called on cpu-spot-dy-c5n2xlarge-1
*** at Tue Jun 22 03:41:31 2021

   => Loading Basis Set <=

    Name: 6-31+G*
    Role: ORBITAL
    Keyword: BASIS
    atoms 1             entry N          line   138 file /fsx/users/francis/anaconda3/envs/poltype-dev/share/psi4/basis/6-31pgs.gbs 
    atoms 2-3, 6-12, 14 entry C          line   119 file /fsx/users/francis/anaconda3/envs/poltype-dev/share/psi4/basis/6-31pgs.gbs 
    atoms 4-5           entry F          line   176 file /fsx/users/francis/anaconda3/envs/poltype-dev/share/psi4/basis/6-31pgs.gbs 
    atoms 13            entry S          line   344 file /fsx/users/francis/anaconda3/envs/poltype-dev/share/psi4/basis/6-31pgs.gbs 
    atoms 15-16         entry O          line   157 file /fsx/users/francis/anaconda3/envs/poltype-dev/share/psi4/basis/6-31pgs.gbs 
    atoms 17-23         entry H          line    46 file /fsx/users/francis/anaconda3/envs/poltype-dev/share/psi4/basis/6-31pgs.gbs 


         ---------------------------------------------------------
                                   SCF
               by Justin Turney, Rob Parrish, Andy Simmonett
                          and Daniel G. A. Smith
                              RKS Reference
                        8 Threads,  15258 MiB Core
         ---------------------------------------------------------

  ==> Geometry <==

    Molecular point group: c1
    Full point group: C1

    Geometry (in Angstrom), charge = 0, multiplicity = 1:

       Center              X                  Y                   Z               Mass       
    ------------   -----------------  -----------------  -----------------  -----------------
         N           -1.023024028548    -1.488187000657     0.258111304260    14.003074004430
         C           -2.337183028548    -1.148385000657     0.445542304260    12.000000000000
         C           -2.663412028548     0.381427999343     0.400360304260    12.000000000000
         F           -3.609189028548     0.574085999343    -0.581834695740    18.998403162730
         F           -3.223920028548     0.720443999343     1.611513304260    18.998403162730
         C           -1.472914028548     1.364424999343     0.126092304260    12.000000000000
         C           -0.125110028548     0.777306999343    -0.052347695740    12.000000000000
         C            0.985296971452     1.613296999343    -0.299720695740    12.000000000000
         C            2.268385971452     1.079094999343    -0.476291695740    12.000000000000
         C            2.479206971452    -0.325928000657    -0.406436695740    12.000000000000
         C            1.366327971452    -1.158282000657    -0.149891695740    12.000000000000
         C            0.075509971452    -0.628144000657     0.020518304260    12.000000000000
         S            4.033571971452    -1.178023000657    -0.568912695740    31.972071174400
         C            5.348940971452     0.067343999343    -0.706489695740    12.000000000000
         O           -3.178519028548    -2.014518000657     0.636356304260    15.994914619570
         O           -1.665388028548     2.575292999343     0.067098304260    15.994914619570
         H            3.082116971452     1.770753999343    -0.685846695740     1.007825032230
         H            0.817841971452     2.689737999343    -0.351671695740     1.007825032230
         H           -0.877356028548    -2.487572000657     0.301024304260     1.007825032230
         H            1.510439971452    -2.237569000657    -0.077701695740     1.007825032230
         H            5.043098971452     1.013981999343    -0.255923695740     1.007825032230
         H            6.241684971452    -0.305627000657    -0.195224695740     1.007825032230
         H            5.574055971452     0.224656999343    -1.765936695740     1.007825032230

  Running in c1 symmetry.

  Rotational constants: A =      0.03855  B =      0.00806  C =      0.00694 [cm^-1]
  Rotational constants: A =   1155.70162  B =    241.67142  C =    207.98492 [MHz]
  Nuclear repulsion = 1173.406294682520411

  Charge       = 0
  Multiplicity = 1
  Electrons    = 124
  Nalpha       = 62
  Nbeta        = 62

  ==> Algorithm <==

  SCF Algorithm Type is DF.
  DIIS enabled.
  MOM disabled.
  Fractional occupation disabled.
  Guess Type is SAD.
  Energy threshold   = 1.00e-08
  Density threshold  = 1.00e-08
  Integral threshold = 0.00e+00

  ==> Primary Basis <==

  Basis Set: 6-31+G*
    Blend: 6-31+G*
    Number of shells: 144
    Number of basis function: 322
    Number of Cartesian functions: 322
    Spherical Harmonics?: false
    Max angular momentum: 2

  ==> DFT Potential <==

   => Composite Functional: WB97X-D <= 

    wB97X-D Hyb-GGA Exchange-Correlation Functional

    J.-D. Chai and M. Head-Gordon, Phys. Chem. Chem. Phys. 10, 6615 (2008)

    Deriv               =              1
    GGA                 =           TRUE
    Meta                =          FALSE

    Exchange Hybrid     =           TRUE
    MP2 Hybrid          =          FALSE

   => Exchange-Correlation Functionals <=

    1.0000   wB97D range-separated functional

   => Exact (HF) Exchange <=

    0.7780            HF,LR [omega = 0.2000]
    0.2220               HF 

   => Molecular Quadrature <=

    Radial Scheme          =       TREUTLER
    Pruning Scheme         =           FLAT
    Nuclear Scheme         =       TREUTLER

    BS radius alpha        =              1
    Pruning alpha          =              1
    Radial Points          =             75
    Spherical Points       =            302
    Total Points           =         520855
    Total Blocks           =           3898
    Max Points             =            256
    Max Functions          =            279

   => WB97X-D: Empirical Dispersion <=

    Chai and Head-Gordon Dispersion Correction
    Chai, J.-D.; Head-Gordon, M. (2010), J. Chem. Phys., 132: 6615-6620

        s6 =       1.000000

   => Loading Basis Set <=

    Name: (6-31+G* AUX)
    Role: JKFIT
    Keyword: DF_BASIS_SCF
    atoms 1             entry N          line   252 file /fsx/users/francis/anaconda3/envs/poltype-dev/share/psi4/basis/heavy-aug-cc-pvdz-jkfit.gbs 
    atoms 2-3, 6-12, 14 entry C          line   194 file /fsx/users/francis/anaconda3/envs/poltype-dev/share/psi4/basis/heavy-aug-cc-pvdz-jkfit.gbs 
    atoms 4-5           entry F          line   368 file /fsx/users/francis/anaconda3/envs/poltype-dev/share/psi4/basis/heavy-aug-cc-pvdz-jkfit.gbs 
    atoms 13            entry S          line   730 file /fsx/users/francis/anaconda3/envs/poltype-dev/share/psi4/basis/heavy-aug-cc-pvdz-jkfit.gbs 
    atoms 15-16         entry O          line   310 file /fsx/users/francis/anaconda3/envs/poltype-dev/share/psi4/basis/heavy-aug-cc-pvdz-jkfit.gbs 
    atoms 17-23         entry H          line   116 file /fsx/users/francis/anaconda3/envs/poltype-dev/share/psi4/basis/heavy-aug-cc-pvdz-jkfit.gbs 

  ==> Pre-Iterations <==

   -------------------------------------------------------
    Irrep   Nso     Nmo     Nalpha   Nbeta   Ndocc  Nsocc
   -------------------------------------------------------
     A        322     322       0       0       0       0
   -------------------------------------------------------
    Total     322     322      62      62      62       0
   -------------------------------------------------------

  ==> Integral Setup <==

  ==> DiskDFJK: Density-Fitted J/K Matrices <==

    J tasked:                  Yes
    K tasked:                  Yes
    wK tasked:                 Yes
    Omega:               2.000E-01
    OpenMP threads:              8
    Integrals threads:           8
    Memory [MiB]:             8463
    Algorithm:                Core
    Integral Cache:           NONE
    Schwarz Cutoff:          1E-12
    Fitting Condition:       1E-10

   => Auxiliary Basis Set <=

  Basis Set: (6-31+G* AUX)
    Blend: HEAVY-AUG-CC-PVDZ-JKFIT
    Number of shells: 523
    Number of basis function: 1840
    Number of Cartesian functions: 1840
    Spherical Harmonics?: false
    Max angular momentum: 3

  Cached 100.0% of DFT collocation blocks in 2.910 [GiB].

  Minimum eigenvalue in the overlap matrix is 4.8616999494E-07.
  Using Symmetric Orthogonalization.

  SCF Guess: Superposition of Atomic Densities via on-the-fly atomic UHF.

  ==> Iterations <==

                           Total Energy        Delta E     RMS |[F,P]|

   @DF-RKS iter SAD: -1187.20194697106899   -1.18720e+03   0.00000e+00 
   @DF-RKS iter   1: -1187.53413682472205   -3.32190e-01   3.40363e-03 DIIS
   @DF-RKS iter   2: -1187.54432479763591   -1.01880e-02   3.70899e-03 DIIS
   @DF-RKS iter   3: -1188.08520645432486   -5.40882e-01   7.82171e-04 DIIS
   @DF-RKS iter   4: -1188.10928634787479   -2.40799e-02   2.68674e-04 DIIS
   @DF-RKS iter   5: -1188.11283906130984   -3.55271e-03   7.24928e-05 DIIS
   @DF-RKS iter   6: -1188.11324140058377   -4.02339e-04   2.37923e-05 DIIS
   @DF-RKS iter   7: -1188.11330245705790   -6.10565e-05   1.03094e-05 DIIS
   @DF-RKS iter   8: -1188.11331897613672   -1.65191e-05   3.93538e-06 DIIS
   @DF-RKS iter   9: -1188.11332182133560   -2.84520e-06   2.15694e-06 DIIS
   @DF-RKS iter  10: -1188.11332217421386   -3.52878e-07   7.24019e-07 DIIS
   @DF-RKS iter  11: -1188.11332222448755   -5.02737e-08   3.27405e-07 DIIS
   @DF-RKS iter  12: -1188.11332223493150   -1.04440e-08   1.49771e-07 DIIS
   @DF-RKS iter  13: -1188.11332223747354   -2.54204e-09   5.78730e-08 DIIS
   @DF-RKS iter  14: -1188.11332223777390   -3.00361e-10   2.45566e-08 DIIS
   @DF-RKS iter  15: -1188.11332223783211   -5.82077e-11   1.18493e-08 DIIS
   @DF-RKS iter  16: -1188.11332223783779   -5.68434e-12   6.32273e-09 DIIS
  Energy and wave function converged.


  ==> Post-Iterations <==

    Orbital Energies [Eh]
    ---------------------

    Doubly Occupied:                                                      

       1A    -89.085948     2A    -24.873167     3A    -24.872672  
       4A    -19.304604     5A    -19.293323     6A    -14.542225  
       7A    -10.510090     8A    -10.458100     9A    -10.434984  
      10A    -10.411009    11A    -10.394735    12A    -10.358689  
      13A    -10.355301    14A    -10.352530    15A    -10.352520  
      16A    -10.347442    17A     -8.103303    18A     -6.054083  
      19A     -6.049445    20A     -6.043468    21A     -1.381246  
      22A     -1.324937    23A     -1.188619    24A     -1.174313  
      25A     -1.091583    26A     -0.999085    27A     -0.939931  
      28A     -0.903721    29A     -0.885894    30A     -0.869284  
      31A     -0.798177    32A     -0.763370    33A     -0.750309  
      34A     -0.744264    35A     -0.693131    36A     -0.678435  
      37A     -0.665516    38A     -0.644080    39A     -0.628089  
      40A     -0.589461    41A     -0.584153    42A     -0.564348  
      43A     -0.561893    44A     -0.555822    45A     -0.553442  
      46A     -0.551150    47A     -0.547820    48A     -0.535261  
      49A     -0.521929    50A     -0.516040    51A     -0.506436  
      52A     -0.498854    53A     -0.490734    54A     -0.485696  
      55A     -0.474561    56A     -0.439017    57A     -0.429665  
      58A     -0.395573    59A     -0.394916    60A     -0.367297  
      61A     -0.339598    62A     -0.317860  

    Virtual:                                                              

      63A     -0.046240    64A      0.011509    65A      0.039285  
      66A      0.047480    67A      0.051930    68A      0.065111  
      69A      0.066541    70A      0.074768    71A      0.080603  
      72A      0.084359    73A      0.092487    74A      0.095411  
      75A      0.105170    76A      0.111244    77A      0.114727  
      78A      0.117559    79A      0.117751    80A      0.130905  
      81A      0.137344    82A      0.138551    83A      0.143804  
      84A      0.149037    85A      0.153891    86A      0.163625  
      87A      0.172089    88A      0.174565    89A      0.175954  
      90A      0.180114    91A      0.184152    92A      0.189546  
      93A      0.192607    94A      0.197634    95A      0.202919  
      96A      0.204578    97A      0.213559    98A      0.217572  
      99A      0.219307   100A      0.226905   101A      0.232994  
     102A      0.236294   103A      0.240932   104A      0.244008  
     105A      0.246544   106A      0.251146   107A      0.257276  
     108A      0.261647   109A      0.267559   110A      0.270963  
     111A      0.276335   112A      0.284556   113A      0.287901  
     114A      0.290773   115A      0.300061   116A      0.301085  
     117A      0.312166   118A      0.314619   119A      0.322396  
     120A      0.327044   121A      0.329706   122A      0.329887  
     123A      0.336551   124A      0.342197   125A      0.355100  
     126A      0.360246   127A      0.362284   128A      0.373952  
     129A      0.378250   130A      0.383006   131A      0.392018  
     132A      0.395985   133A      0.397713   134A      0.401802  
     135A      0.411386   136A      0.416673   137A      0.424883  
     138A      0.434315   139A      0.444399   140A      0.449306  
     141A      0.458018   142A      0.469276   143A      0.477229  
     144A      0.481826   145A      0.503264   146A      0.511998  
     147A      0.525936   148A      0.528570   149A      0.537053  
     150A      0.555027   151A      0.574975   152A      0.580860  
     153A      0.585412   154A      0.596061   155A      0.606052  
     156A      0.627156   157A      0.656189   158A      0.662420  
     159A      0.673300   160A      0.695237   161A      0.728210  
     162A      0.742654   163A      0.752911   164A      0.762253  
     165A      0.769415   166A      0.771174   167A      0.788702  
     168A      0.797648   169A      0.804000   170A      0.819009  
     171A      0.822079   172A      0.844515   173A      0.861635  
     174A      0.877262   175A      0.882741   176A      0.883306  
     177A      0.899031   178A      0.916161   179A      0.926049  
     180A      0.930689   181A      0.962846   182A      0.965709  
     183A      0.980861   184A      0.982209   185A      1.015579  
     186A      1.021019   187A      1.045486   188A      1.057319  
     189A      1.067242   190A      1.079165   191A      1.083561  
     192A      1.094427   193A      1.116949   194A      1.152456  
     195A      1.153476   196A      1.171615   197A      1.201374  
     198A      1.204222   199A      1.214454   200A      1.217228  
     201A      1.227243   202A      1.231365   203A      1.268714  
     204A      1.283225   205A      1.283473   206A      1.321209  
     207A      1.323238   208A      1.335308   209A      1.344851  
     210A      1.385812   211A      1.402993   212A      1.407411  
     213A      1.414631   214A      1.418514   215A      1.440744  
     216A      1.446204   217A      1.451374   218A      1.464893  
     219A      1.467584   220A      1.484351   221A      1.503523  
     222A      1.512142   223A      1.524952   224A      1.533275  
     225A      1.547280   226A      1.592200   227A      1.620569  
     228A      1.650039   229A      1.664070   230A      1.670684  
     231A      1.709542   232A      1.750062   233A      1.753657  
     234A      1.758623   235A      1.759712   236A      1.762623  
     237A      1.768483   238A      1.780648   239A      1.788279  
     240A      1.821376   241A      1.838847   242A      1.864506  
     243A      1.874146   244A      1.897030   245A      1.899267  
     246A      1.910143   247A      1.919455   248A      1.946351  
     249A      1.963333   250A      1.966692   251A      1.971409  
     252A      2.004229   253A      2.038900   254A      2.049278  
     255A      2.057181   256A      2.058650   257A      2.081446  
     258A      2.090404   259A      2.099433   260A      2.112531  
     261A      2.145978   262A      2.152505   263A      2.167248  
     264A      2.200334   265A      2.205932   266A      2.210895  
     267A      2.248413   268A      2.257663   269A      2.262242  
     270A      2.269341   271A      2.302822   272A      2.308260  
     273A      2.319267   274A      2.343615   275A      2.348243  
     276A      2.367548   277A      2.380858   278A      2.403016  
     279A      2.462551   280A      2.465336   281A      2.510797  
     282A      2.514582   283A      2.569281   284A      2.625976  
     285A      2.657169   286A      2.676283   287A      2.704803  
     288A      2.730146   289A      2.736543   290A      2.770070  
     291A      2.775133   292A      2.827358   293A      2.828475  
     294A      2.849936   295A      2.898743   296A      2.948454  
     297A      2.960069   298A      3.030833   299A      3.124159  
     300A      3.155195   301A      3.210829   302A      3.233695  
     303A      3.338424   304A      3.379542   305A      3.463167  
     306A      3.487241   307A      4.035153   308A      4.279108  
     309A      4.309873   310A      4.331935   311A      4.360942  
     312A      4.377373   313A      4.416193   314A      4.469727  
     315A      4.486171   316A      4.521482   317A      4.580595  
     318A      4.780294   319A      4.835829   320A      5.117069  
     321A      5.696576   322A      7.145628  

    Final Occupation by Irrep:
              A 
    DOCC [    62 ]

  @DF-RKS Final Energy: -1188.11332223783779

   => Energetics <=

    Nuclear Repulsion Energy =           1173.4062946825204108
    One-Electron Energy =               -3960.8920170970086474
    Two-Electron Energy =                1688.8246176510861005
    DFT Exchange-Correlation Energy =     -89.4388166992638531
    Empirical Dispersion Energy =          -0.0134007751720830
    VV10 Nonlocal Energy =                  0.0000000000000000
    Total Energy =                      -1188.1133222378380196

Computation Completed


Properties will be evaluated at   0.000000,   0.000000,   0.000000 [a0]

Properties computed using the SCF density matrix

  Nuclear Dipole Moment: [e a0]
     X:    26.5864      Y:    -0.6187      Z:    -3.8255

  Electronic Dipole Moment: [e a0]
     X:   -23.2988      Y:     0.2618      Z:     3.3835

  Dipole Moment: [e a0]
     X:     3.2876      Y:    -0.3569      Z:    -0.4419     Total:     3.3363

  Dipole Moment: [D]
     X:     8.3562      Y:    -0.9072      Z:    -1.1233     Total:     8.4801


*** tstop() called on cpu-spot-dy-c5n2xlarge-1 at Tue Jun 22 03:42:47 2021
Module time:
	user time   =     567.41 seconds =       9.46 minutes
	system time =      10.46 seconds =       0.17 minutes
	total time  =         76 seconds =       1.27 minutes
Total time:
	user time   =     567.41 seconds =       9.46 minutes
	system time =      10.46 seconds =       0.17 minutes
	total time  =         76 seconds =       1.27 minutes

*** tstart() called on cpu-spot-dy-c5n2xlarge-1
*** at Tue Jun 22 03:42:47 2021


         ------------------------------------------------------------
                                   SCF GRAD                          
                          Rob Parrish, Justin Turney,                
                       Andy Simmonett, and Alex Sokolov              
         ------------------------------------------------------------

  ==> Geometry <==

    Molecular point group: c1
    Full point group: C1

    Geometry (in Angstrom), charge = 0, multiplicity = 1:

       Center              X                  Y                   Z               Mass       
    ------------   -----------------  -----------------  -----------------  -----------------
         N           -1.023024028548    -1.488187000657     0.258111304260    14.003074004430
         C           -2.337183028548    -1.148385000657     0.445542304260    12.000000000000
         C           -2.663412028548     0.381427999343     0.400360304260    12.000000000000
         F           -3.609189028548     0.574085999343    -0.581834695740    18.998403162730
         F           -3.223920028548     0.720443999343     1.611513304260    18.998403162730
         C           -1.472914028548     1.364424999343     0.126092304260    12.000000000000
         C           -0.125110028548     0.777306999343    -0.052347695740    12.000000000000
         C            0.985296971452     1.613296999343    -0.299720695740    12.000000000000
         C            2.268385971452     1.079094999343    -0.476291695740    12.000000000000
         C            2.479206971452    -0.325928000657    -0.406436695740    12.000000000000
         C            1.366327971452    -1.158282000657    -0.149891695740    12.000000000000
         C            0.075509971452    -0.628144000657     0.020518304260    12.000000000000
         S            4.033571971452    -1.178023000657    -0.568912695740    31.972071174400
         C            5.348940971452     0.067343999343    -0.706489695740    12.000000000000
         O           -3.178519028548    -2.014518000657     0.636356304260    15.994914619570
         O           -1.665388028548     2.575292999343     0.067098304260    15.994914619570
         H            3.082116971452     1.770753999343    -0.685846695740     1.007825032230
         H            0.817841971452     2.689737999343    -0.351671695740     1.007825032230
         H           -0.877356028548    -2.487572000657     0.301024304260     1.007825032230
         H            1.510439971452    -2.237569000657    -0.077701695740     1.007825032230
         H            5.043098971452     1.013981999343    -0.255923695740     1.007825032230
         H            6.241684971452    -0.305627000657    -0.195224695740     1.007825032230
         H            5.574055971452     0.224656999343    -1.765936695740     1.007825032230

  Nuclear repulsion = 1173.406294682520411

  ==> Basis Set <==

  Basis Set: 6-31+G*
    Blend: 6-31+G*
    Number of shells: 144
    Number of basis function: 322
    Number of Cartesian functions: 322
    Spherical Harmonics?: false
    Max angular momentum: 2

  ==> DFJKGrad: Density-Fitted SCF Gradients <==

    Gradient:                    1
    J tasked:                  Yes
    K tasked:                  Yes
    wK tasked:                 Yes
    Omega:               2.000E-01
    OpenMP threads:              8
    Integrals threads:           8
    Memory [MiB]:            11444
    Schwarz Cutoff:          0E+00
    Fitting Condition:       1E-10

   => Auxiliary Basis Set <=

  Basis Set: (6-31+G* AUX)
    Blend: HEAVY-AUG-CC-PVDZ-JKFIT
    Number of shells: 523
    Number of basis function: 1840
    Number of Cartesian functions: 1840
    Spherical Harmonics?: false
    Max angular momentum: 3

  ==> DFT Potential <==

   => Composite Functional: WB97X-D <= 

    wB97X-D Hyb-GGA Exchange-Correlation Functional

    J.-D. Chai and M. Head-Gordon, Phys. Chem. Chem. Phys. 10, 6615 (2008)

    Deriv               =              1
    GGA                 =           TRUE
    Meta                =          FALSE

    Exchange Hybrid     =           TRUE
    MP2 Hybrid          =          FALSE

   => Exchange-Correlation Functionals <=

    1.0000   wB97D range-separated functional

   => Exact (HF) Exchange <=

    0.7780            HF,LR [omega = 0.2000]
    0.2220               HF 

   => Molecular Quadrature <=

    Radial Scheme          =       TREUTLER
    Pruning Scheme         =           FLAT
    Nuclear Scheme         =       TREUTLER

    BS radius alpha        =              1
    Pruning alpha          =              1
    Radial Points          =             75
    Spherical Points       =            302
    Total Points           =         520855
    Total Blocks           =           3898
    Max Points             =            256
    Max Functions          =            279


  -Total Gradient:
     Atom            X                  Y                   Z
    ------   -----------------  -----------------  -----------------
       1       -0.009459053367    -0.010915929340     0.001811303104
       2        0.007790294812     0.011313793533    -0.002134069157
       3        0.012704511731    -0.003949173605    -0.001247984426
       4       -0.012447744314     0.002633443226    -0.013800984809
       5       -0.007012372491     0.004544004403     0.016221518674
       6       -0.008673802444    -0.021768436352     0.002846002665
       7       -0.000242811722     0.007339078320    -0.000764971732
       8       -0.003791379675     0.013679009491    -0.000589074128
       9        0.006172306992     0.003807936114     0.000340382752
      10        0.009079058374    -0.010643094121    -0.003960495736
      11        0.004113230445    -0.002412192311     0.000130151563
      12       -0.001956800085    -0.005911745824     0.002095254502
      13        0.006151961195     0.002649718010    -0.003750416052
      14        0.005808828807    -0.004740145179     0.007023608606
      15       -0.008404992257    -0.021539655554     0.002767285834
      16        0.004696779003     0.029138042722    -0.002879923123
      17        0.000696827483     0.003497421760    -0.000459990364
      18       -0.000828832813     0.003911853330     0.000062917699
      19       -0.004126465322     0.001708786711     0.000548879160
      20        0.000326062614    -0.002486913822     0.000252007998
      21       -0.002049300525     0.000636894417    -0.001989783792
      22        0.003516627823     0.001179289761    -0.000269818896
      23       -0.001332081586    -0.002115655161    -0.002235848722


*** tstop() called on cpu-spot-dy-c5n2xlarge-1 at Tue Jun 22 03:43:11 2021
Module time:
	user time   =     151.53 seconds =       2.53 minutes
	system time =       3.71 seconds =       0.06 minutes
	total time  =         24 seconds =       0.40 minutes
Total time:
	user time   =     718.94 seconds =      11.98 minutes
	system time =      14.17 seconds =       0.24 minutes
	total time  =        100 seconds =       1.67 minutes

			-----------------------------------------
			 OPTKING 2.0: for geometry optimizations 
			  - R.A. King,  Bethel University        
			-----------------------------------------
	At level 1: Red. Int., RFO, no backsteps, dynamic trust

	Internal coordinates to be generated automatically.
	Detected frag 1 with atoms:  1 2 3 4 5 6 7 8 9 10 11 12 13 14 15 16 17 18 19 20
	 21 22 23
	---Fragment 1 Bond Connectivity---
	 1 : 2 12 19
	 2 : 1 3 15
	 3 : 2 4 5 6
	 4 : 3
	 5 : 3
	 6 : 3 7 16
	 7 : 6 8 12
	 8 : 7 9 18
	 9 : 8 10 17
	 10 : 9 11 13
	 11 : 10 12 20
	 12 : 1 7 11
	 13 : 10 14
	 14 : 13 21 22 23
	 15 : 2
	 16 : 6
	 17 : 9
	 18 : 8
	 19 : 1
	 20 : 11
	 21 : 14
	 22 : 14
	 23 : 14

	Assuming in current code that numbering for constraints corresponds to unified fragment.
	Frozen dihedral atom list: 
	    11    10    13    14
	     9    10    13    14
	    21    14    13    10
	---Fragment 1 Geometry and Gradient---
	 N          -1.9332352337       -2.8122658547        0.4877596749
	 C          -4.4166358290       -2.1701331378        0.8419529324
	 C          -5.0331192932        0.7207944553        0.7565713266
	 F          -6.8203787990        1.0848653112       -1.0995082252
	 F          -6.0923259043        1.3614418475        3.0453187926
	 C          -2.7834041203        2.5783895675        0.2382799216
	 C          -0.2364236895        1.4688973442       -0.0989228082
	 C           1.8619414283        3.0486894878       -0.5663900291
	 C           4.2866282329        2.0391940121       -0.9000608608
	 C           4.6850221844       -0.6159146579       -0.7680540423
	 C           2.5819856636       -2.1888357573       -0.2832542534
	 C           0.1426931658       -1.1870201286        0.0387739756
	 S           7.6223463334       -2.2261408407       -1.0750891842
	 C          10.1080334973        0.1272617150       -1.3350720354
	 O          -6.0065304485       -3.8068872960        1.2025391333
	 O          -3.1471272666        4.8665984616        0.1267974185
	 H           5.8243569627        3.3462400943       -1.2960624190
	 H           1.5454973399        5.0828681680       -0.6645631910
	 H          -1.6579626085       -4.7008297986        0.5688534922
	 H           2.8543178750       -4.2283925981       -0.1468349244
	 H           9.5300758796        1.9161482749       -0.4836256940
	 H          11.7950751574       -0.5775513278       -0.3689212079
	 H          10.5334391940        0.4245402009       -3.3371367098
	            -0.0094590534       -0.0109159293        0.0018113031
	             0.0077902948        0.0113137935       -0.0021340692
	             0.0127045117       -0.0039491736       -0.0012479844
	            -0.0124477443        0.0026334432       -0.0138009848
	            -0.0070123725        0.0045440044        0.0162215187
	            -0.0086738024       -0.0217684364        0.0028460027
	            -0.0002428117        0.0073390783       -0.0007649717
	            -0.0037913797        0.0136790095       -0.0005890741
	             0.0061723070        0.0038079361        0.0003403828
	             0.0090790584       -0.0106430941       -0.0039604957
	             0.0041132304       -0.0024121923        0.0001301516
	            -0.0019568001       -0.0059117458        0.0020952545
	             0.0061519612        0.0026497180       -0.0037504161
	             0.0058088288       -0.0047401452        0.0070236086
	            -0.0084049923       -0.0215396556        0.0027672858
	             0.0046967790        0.0291380427       -0.0028799231
	             0.0006968275        0.0034974218       -0.0004599904
	            -0.0008288328        0.0039118533        0.0000629177
	            -0.0041264653        0.0017087867        0.0005488792
	             0.0003260626       -0.0024869138        0.0002520080
	            -0.0020493005        0.0006368944       -0.0019897838
	             0.0035166278        0.0011792898       -0.0002698189
	            -0.0013320816       -0.0021156552       -0.0022358487

	Previous optimization step data not found.  Starting new optimization.

	---Fragment 1 Intrafragment Coordinates---
	 - Coordinate -           - BOHR/RAD -       - ANG/DEG -
	 R(1,2)           =         2.589414	       1.370259
	 R(1,12)          =         2.674414	       1.415239
	 R(1,19)          =         1.910242	       1.010857
	 R(2,3)           =         2.957162	       1.564862
	 R(2,15)          =         2.310141	       1.222474
	 R(3,4)           =         2.602283	       1.377069
	 R(3,5)           =         2.602059	       1.376950
	 R(3,6)           =         2.963192	       1.568053
	 R(6,7)           =         2.798533	       1.480920
	 R(6,16)          =         2.319617	       1.227488
	 R(7,8)           =         2.667847	       1.411764
	 R(7,12)          =         2.686371	       1.421566
	 R(8,9)           =         2.647550	       1.401023
	 R(8,18)          =         2.060985	       1.090626
	 R(9,10)          =         2.688075	       1.422468
	 R(9,17)          =         2.056647	       1.088331
	 R(10,11)         =         2.670557	       1.413198
	 R(10,13)         =         3.363773	       1.780032
	 R(11,12)         =         2.656593	       1.405808
	 R(11,20)         =         2.062175	       1.091256
	 R(13,14)         =         3.432890	       1.816607
	 R(14,21)         =         2.063761	       1.092095
	 R(14,22)         =         2.067926	       1.094299
	 R(14,23)         =         2.068238	       1.094464
	 B(1,2,3)         =         2.024632	     116.002886
	 B(1,2,15)        =         2.100989	     120.377789
	 B(1,12,7)        =         2.094249	     119.991613
	 B(1,12,11)       =         2.098915	     120.258946
	 B(2,1,12)        =         2.235343	     128.075722
	 B(2,1,19)        =         1.957963	     112.183028
	 B(2,3,4)         =         1.876059	     107.490249
	 B(2,3,5)         =         1.875655	     107.467117
	 B(2,3,6)         =         2.048368	     117.362815
	 B(3,2,15)        =         2.157563	     123.619226
	 B(3,6,7)         =         2.052757	     117.614335
	 B(3,6,16)        =         2.103379	     120.514738
	 B(4,3,5)         =         1.889514	     108.261182
	 B(4,3,6)         =         1.884913	     107.997572
	 B(5,3,6)         =         1.884471	     107.972212
	 B(6,7,8)         =         2.096923	     120.144817
	 B(6,7,12)        =         2.110900	     120.945670
	 B(7,6,16)        =         2.127045	     121.870716
	 B(7,8,9)         =         2.113702	     121.106225
	 B(7,8,18)        =         2.062399	     118.166759
	 B(7,12,11)       =         2.090012	     119.748883
	 B(8,7,12)        =         2.075362	     118.909503
	 B(8,9,10)        =         2.101524	     120.408457
	 B(8,9,17)        =         2.056346	     117.819948
	 B(9,8,18)        =         2.107083	     120.726942
	 B(9,10,11)       =         2.064585	     118.292022
	 B(9,10,13)       =         2.211503	     126.709768
	 B(10,9,17)       =         2.125124	     121.760612
	 B(10,11,12)      =         2.121130	     121.531779
	 B(10,11,20)      =         2.083504	     119.375995
	 B(10,13,14)      =         1.887071	     108.121180
	 B(11,10,13)      =         2.006754	     114.978532
	 B(12,1,19)       =         2.089870	     119.740752
	 B(12,11,20)      =         2.078542	     119.091702
	 B(13,14,21)      =         1.939292	     111.113261
	 B(13,14,22)      =         1.898295	     108.764314
	 B(13,14,23)      =         1.897349	     108.710062
	 B(21,14,22)      =         1.908317	     109.338487
	 B(21,14,23)      =         1.909624	     109.413377
	 B(22,14,23)      =         1.910755	     109.478194
	 D(1,2,3,4)       =         2.142836	     122.775480
	 D(1,2,3,5)       =        -2.109969	    -120.892315
	 D(1,2,3,6)       =         0.015979	       0.915517
	 D(1,12,7,6)      =         0.007080	       0.405637
	 D(1,12,7,8)      =        -3.133866	    -179.557297
	 D(1,12,11,10)    =         3.126386	     179.128731
	 D(1,12,11,20)    =        -0.019831	      -1.136213
	 D(2,1,12,7)      =        -0.004598	      -0.263456
	 D(2,1,12,11)     =        -3.141433	    -179.990879
	 D(2,3,6,7)       =        -0.013755	      -0.788076
	 D(2,3,6,16)      =         3.130702	     179.376010
	 D(3,2,1,12)      =        -0.007367	      -0.422070
	 D(3,2,1,19)      =         3.138781	     179.838879
	 D(3,6,7,8)       =        -3.139852	    -179.900266
	 D(3,6,7,12)      =         0.002396	       0.137255
	 D(4,3,2,15)      =        -1.000754	     -57.338962
	 D(4,3,6,7)       =        -2.136030	    -122.385487
	 D(4,3,6,16)      =         1.008427	      57.778599
	 D(5,3,2,15)      =         1.029626	      58.993244
	 D(5,3,6,7)       =         2.107628	     120.758212
	 D(5,3,6,16)      =        -1.031100	     -59.077702
	 D(6,3,2,15)      =        -3.127611	    -179.198924
	 D(6,7,8,9)       =        -3.137641	    -179.773579
	 D(6,7,8,18)      =         0.002246	       0.128680
	 D(6,7,12,11)     =        -3.139246	    -179.865543
	 D(7,8,9,10)      =        -0.002342	      -0.134193
	 D(7,8,9,17)      =         3.118578	     178.681372
	 D(7,12,1,19)     =         3.132137	     179.458253
	 D(7,12,11,10)    =        -0.010461	      -0.599354
	 D(7,12,11,20)    =         3.126508	     179.135702
	 D(8,7,6,16)      =        -0.001164	      -0.066720
	 D(8,7,12,11)     =         0.002994	       0.171523
	 D(8,9,10,11)     =        -0.004859	      -0.278386
	 D(8,9,10,13)     =        -3.116752	    -178.576753
	 D(9,8,7,12)      =         0.003310	       0.189660
	 D(9,10,11,12)    =         0.011306	       0.647765
	 D(9,10,11,20)    =        -3.125650	    -179.086555
	*D(9,10,13,14)    =         0.080183	       4.594170
	 D(10,9,8,18)     =         3.141000	     179.966046
	*D(10,13,14,21)   =         0.421011	      24.122171
	 D(10,13,14,22)   =         2.522449	     144.525673
	 D(10,13,14,23)   =        -1.681432	     -96.338973
	 D(11,10,9,17)    =        -3.124948	    -179.046352
	*D(11,10,13,14)   =        -3.032560	    -173.752873
	 D(11,12,1,19)    =        -0.004698	      -0.269170
	 D(12,1,2,15)     =         3.136154	     179.688396
	 D(12,7,6,16)     =         3.141083	     179.970801
	 D(12,7,8,18)     =        -3.139988	    -179.908081
	 D(12,11,10,13)   =         3.126633	     179.142898
	 D(13,10,9,17)    =         0.046343	       2.655281
	 D(13,10,11,20)   =        -0.010322	      -0.591422
	 D(15,2,1,19)     =        -0.000884	      -0.050655
	 D(17,9,8,18)     =        -0.021265	      -1.218390

	Current energy   :     -1188.1133222378

	Generating empirical Hessian (Schlegel '84) for each fragment.
	Taking RFO optimization step.
	Going to follow RFO solution 1.
	Using RFO vector 1.
	Norm of target step-size    0.19669
	Projected energy change by RFO approximation:        -0.0129448067

	Back-transformation to cartesian coordinates...
	Successfully converged to displaced geometry.

	Back-transformation to cartesian coordinates to adjust frozen coordinates...
	Successfully converged to displaced geometry.

	--- Internal Coordinate Step in ANG or DEG, aJ/ANG or AJ/DEG ---
	 ---------------------------------------------------------------------------
	   Coordinate                Previous        Force       Change         New 
	   ----------                --------       ------       ------       ------
	    1 R(1,2)          =      1.370259    -0.008920    -0.001042     1.369217
	    2 R(1,12)         =      1.415239    -0.131744    -0.019399     1.395840
	    3 R(1,19)         =      1.010857     0.018844     0.002569     1.013426
	    4 R(2,3)          =      1.564862    -0.096529    -0.021562     1.543300
	    5 R(2,15)         =      1.222474    -0.176998    -0.011895     1.210579
	    6 R(3,4)          =      1.377069    -0.154745    -0.019519     1.357550
	    7 R(3,5)          =      1.376950    -0.150469    -0.018971     1.357979
	    8 R(3,6)          =      1.568053    -0.090318    -0.020504     1.547549
	    9 R(6,7)          =      1.480920    -0.079409    -0.014454     1.466466
	   10 R(6,16)         =      1.227488    -0.232104    -0.015958     1.211530
	   11 R(7,8)          =      1.411764    -0.106699    -0.015360     1.396404
	   12 R(7,12)         =      1.421566    -0.118373    -0.018066     1.403500
	   13 R(8,9)          =      1.401023    -0.140872    -0.019424     1.381599
	   14 R(8,18)         =      1.090626    -0.033025    -0.005889     1.084737
	   15 R(9,10)         =      1.422468    -0.145451    -0.021470     1.400997
	   16 R(9,17)         =      1.088331    -0.023238    -0.004113     1.084217
	   17 R(10,11)        =      1.413198    -0.110333    -0.015692     1.397506
	   18 R(10,13)        =      1.780032    -0.095960    -0.021228     1.758805
	   19 R(11,12)        =      1.405808    -0.140017    -0.019508     1.386301
	   20 R(11,20)        =      1.091256    -0.020570    -0.003675     1.087581
	   21 R(13,14)        =      1.816607    -0.004943    -0.001215     1.815392
	   22 R(14,21)        =      1.092095    -0.002652    -0.000475     1.091620
	   23 R(14,22)        =      1.094299    -0.019000    -0.003428     1.090871
	   24 R(14,23)        =      1.094464    -0.013091    -0.002363     1.092101
	   25 B(1,2,3)        =    116.002886    -0.000060    -0.043740   115.959146
	   26 B(1,2,15)       =    120.377789     0.000817     2.286678   122.664467
	   27 B(1,12,7)       =    119.991613     0.000215     0.400207   120.391820
	   28 B(1,12,11)      =    120.258946    -0.000400    -1.045561   119.213385
	   29 B(2,1,12)       =    128.075722    -0.000188    -0.665922   127.409800
	   30 B(2,1,19)       =    112.183028     0.000379     1.594428   113.777456
	   31 B(2,3,4)        =    107.490249    -0.000026    -0.114843   107.375406
	   32 B(2,3,5)        =    107.467117    -0.000028    -0.128325   107.338791
	   33 B(2,3,6)        =    117.362815     0.000070     0.476581   117.839396
	   34 B(3,2,15)       =    123.619226    -0.000757    -2.242894   121.376333
	   35 B(3,6,7)        =    117.614335    -0.000144    -0.370209   117.244126
	   36 B(3,6,16)       =    120.514738    -0.000750    -2.189209   118.325529
	   37 B(4,3,5)        =    108.261182    -0.000025    -0.290118   107.971064
	   38 B(4,3,6)        =    107.997572     0.000006     0.058650   108.056222
	   39 B(5,3,6)        =    107.972212    -0.000004    -0.063394   107.908818
	   40 B(6,7,8)        =    120.144817    -0.000032    -0.006401   120.138415
	   41 B(6,7,12)       =    120.945670     0.000108     0.204434   121.150105
	   42 B(7,6,16)       =    121.870716     0.000894     2.559316   124.430032
	   43 B(7,8,9)        =    121.106225     0.000070     0.194867   121.301092
	   44 B(7,8,18)       =    118.166759    -0.000013    -0.015819   118.150940
	   45 B(7,12,11)      =    119.748883     0.000185     0.645219   120.394102
	   46 B(8,7,12)       =    118.909503    -0.000076    -0.198023   118.711480
	   47 B(8,9,10)       =    120.408457    -0.000227    -0.710702   119.697755
	   48 B(8,9,17)       =    117.819948     0.000289     1.128492   118.948439
	   49 B(9,8,18)       =    120.726942    -0.000057    -0.179132   120.547810
	   50 B(9,10,11)      =    118.292022     0.000448     1.311596   119.603619
	   51 B(9,10,13)      =    126.709768    -0.000495    -1.426060   125.283708
	   52 B(10,9,17)      =    121.760612    -0.000062    -0.418251   121.342361
	   53 B(10,11,12)     =    121.531779    -0.000400    -1.243610   120.288170
	   54 B(10,11,20)     =    119.375995     0.000196     0.588315   119.964310
	   55 B(10,13,14)     =    108.121180    -0.001463    -4.209261   103.911919
	   56 B(11,10,13)     =    114.978532     0.000047     0.113868   115.092400
	   57 B(12,1,19)      =    119.740752    -0.000191    -0.928520   118.812231
	   58 B(12,11,20)     =    119.091702     0.000204     0.655265   119.746967
	   59 B(13,14,21)     =    111.113261     0.000107     0.403630   111.516891
	   60 B(13,14,22)     =    108.764314    -0.000395    -1.935820   106.828494
	   61 B(13,14,23)     =    108.710062     0.000385     1.950168   110.660230
	   62 B(21,14,22)     =    109.338487     0.000047    -0.309486   109.029001
	   63 B(21,14,23)     =    109.413377    -0.000177    -0.305368   109.108009
	   64 B(22,14,23)     =    109.478194     0.000034     0.174670   109.652864
	   65 D(1,2,3,4)      =    122.775480     0.000007     0.247683   123.023163
	   66 D(1,2,3,5)      =   -120.892315    -0.000006    -0.211924  -121.104238
	   67 D(1,2,3,6)      =      0.915517    -0.000001    -0.069059     0.846458
	   68 D(1,12,7,6)     =      0.405637    -0.000003    -0.332096     0.073541
	   69 D(1,12,7,8)     =   -179.557297    -0.000003    -0.362242  -179.919539
	   70 D(1,12,11,10)   =    179.128731     0.000004     0.440026   179.568757
	   71 D(1,12,11,20)   =     -1.136213     0.000004     0.434317    -0.701897
	   72 D(2,1,12,7)     =     -0.263456     0.000002     0.238697    -0.024760
	   73 D(2,1,12,11)    =   -179.990879    -0.000003    -0.335609  -180.326488
	   74 D(2,3,6,7)      =     -0.788076     0.000001    -0.025270    -0.813346
	   75 D(2,3,6,16)     =    179.376010     0.000001     0.005199   179.381209
	   76 D(3,2,1,12)     =     -0.422070    -0.000000    -0.028809    -0.450878
	   77 D(3,2,1,19)     =    179.838879    -0.000000    -0.023721   179.815158
	   78 D(3,6,7,8)      =   -179.900266     0.000002     0.254834  -179.645432
	   79 D(3,6,7,12)     =      0.137255     0.000001     0.224331     0.361586
	   80 D(4,3,2,15)     =    -57.338962     0.000007     0.279218   -57.059743
	   81 D(4,3,6,7)      =   -122.385487    -0.000004    -0.256551  -122.642038
	   82 D(4,3,6,16)     =     57.778599    -0.000004    -0.226082    57.552516
	   83 D(5,3,2,15)     =     58.993244    -0.000006    -0.180389    58.812855
	   84 D(5,3,6,7)      =    120.758212     0.000003     0.087132   120.845344
	   85 D(5,3,6,16)     =    -59.077702     0.000002     0.117601   -58.960101
	   86 D(6,3,2,15)     =   -179.198924    -0.000001    -0.037524  -179.236448
	   87 D(6,7,8,9)      =   -179.773579    -0.000002    -0.208736  -179.982315
	   88 D(6,7,8,18)     =      0.128680    -0.000002    -0.254573    -0.125893
	   89 D(6,7,12,11)    =   -179.865543     0.000002     0.244395  -179.621148
	   90 D(7,8,9,10)     =     -0.134193     0.000001     0.074262    -0.059931
	   91 D(7,8,9,17)     =    178.681372    -0.000000     0.044810   178.726181
	   92 D(7,12,1,19)    =    179.458253     0.000003     0.239136   179.697388
	   93 D(7,12,11,10)   =     -0.599354    -0.000001    -0.133624    -0.732978
	   94 D(7,12,11,20)   =    179.135702    -0.000002    -0.139334   178.996368
	   95 D(8,7,6,16)     =     -0.066720     0.000001     0.213655     0.146934
	   96 D(8,7,12,11)    =      0.171523     0.000002     0.214249     0.385772
	   97 D(8,9,10,11)    =     -0.278386    -0.000001    -0.003550    -0.281936
	   98 D(8,9,10,13)    =   -178.576753     0.000000     0.016541  -178.560211
	   99 D(9,8,7,12)     =      0.189660    -0.000001    -0.178824     0.010836
	  100 D(9,10,11,12)   =      0.647765     0.000001     0.030327     0.678092
	  101 D(9,10,11,20)   =   -179.086555     0.000002     0.035890  -179.050665
	  102 *D(9,10,13,14)  =      4.594170    -0.000000     0.000000     4.594170
	  103 D(10,9,8,18)    =    179.966046     0.000002     0.121020   180.087065
	  104 *D(10,13,14,21) =     24.122171     0.000000     0.000000    24.122171
	  105 D(10,13,14,22)  =    144.525673    -0.000030    -1.365029   143.160645
	  106 D(10,13,14,23)  =    -96.338973    -0.000022    -1.188189   -97.527162
	  107 D(11,10,9,17)   =   -179.046352    -0.000001     0.008129  -179.038223
	  108 *D(11,10,13,14) =   -173.752873    -0.000000    -0.000000  -173.752873
	  109 D(11,12,1,19)   =     -0.269170    -0.000003    -0.335170    -0.604340
	  110 D(12,1,2,15)    =    179.688396    -0.000000    -0.055194   179.633202
	  111 D(12,7,6,16)    =    179.970801     0.000001     0.183152   180.153953
	  112 D(12,7,8,18)    =   -179.908081    -0.000002    -0.224660  -180.132742
	  113 D(12,11,10,13)  =    179.142898    -0.000002    -0.016670   179.126228
	  114 D(13,10,9,17)   =      2.655281     0.000000     0.028220     2.683502
	  115 D(13,10,11,20)  =     -0.591422    -0.000002    -0.011107    -0.602529
	  116 D(15,2,1,19)    =     -0.050655    -0.000000    -0.050106    -0.100762
	  117 D(17,9,8,18)    =     -1.218390     0.000001     0.091567    -1.126823
	 ---------------------------------------------------------------------------
	Successfully symmetrized geometry.

  ==> Convergence Check <==

  Measures of convergence in internal coordinates in au.
  Criteria marked as inactive (o), active & met (*), and active & unmet ( ).
  --------------------------------------------------------------------------------------------- ~
   Step     Total Energy     Delta E     MAX Force     RMS Force      MAX Disp      RMS Disp    ~
  --------------------------------------------------------------------------------------------- ~
    Convergence Criteria             o    2.50e-03 *    1.70e-03 *    1.00e-02 *    6.70e-03 *  ~
  --------------------------------------------------------------------------------------------- ~
      1   -1188.11332224   -1.19e+03 o    2.82e-02      6.73e-03      7.35e-02      1.82e-02    ~
  ---------------------------------------------------------------------------------------------

	Writing optimization data to binary file.
	Structure for next step:
	Cartesian Geometry (in Angstrom)
	    N    -1.0227014647  -1.4367993254   0.2745251134
	    C    -2.3136421241  -1.0424162498   0.5040661823
	    C    -2.5689160927   0.4794829075   0.4832350244
	    F    -3.5239628685   0.7175997273  -0.4517134080
	    F    -3.0752690764   0.8215474429   1.6959620415
	    C    -1.3676185440   1.4098208971   0.1895292541
	    C    -0.0644526081   0.7743297086  -0.0305428336
	    C     1.0618679729   1.5569573391  -0.2929150064
	    C     2.3009782877   0.9835682350  -0.5042138453
	    C     2.4385697384  -0.4097760670  -0.4546770025
	    C     1.3210432815  -1.2047329722  -0.1859758328
	    C     0.0801123198  -0.6209062789   0.0166715524
	    S     3.9467598742  -1.2898334296  -0.6650467061
	    C     5.1991483185   0.0171214063  -0.8030376533
	    O    -3.2096874187  -1.8290058941   0.7135448789
	    O    -1.5603811604   2.6055479845   0.1597727790
	    H     3.1457334605   1.6261731405  -0.7255162972
	    H     0.9393608765   2.6341335959  -0.3294982386
	    H    -0.8919789912  -2.4414709671   0.2985760248
	    H     1.4241720061  -2.2860092430  -0.1308541617
	    H     4.8680095451   0.9410284223  -0.3251487039
	    H     6.0925334336  -0.3464877466  -0.2934770303
	    H     5.4307855041   0.2197423442  -1.8508801226
			--------------------------
			 OPTKING Finished Execution 
			--------------------------

    Structure for next step:
    Molecular point group: c1
    Full point group: C1

    Geometry (in Angstrom), charge = 0, multiplicity = 1:

    N           -1.040854594694    -1.453156332706     0.258595064423
    C           -2.331795259211    -1.058773255581     0.488136134187
    C           -2.587069228753     0.463125907692     0.467304976218
    F           -3.542116008312     0.701242728420    -0.467643459809
    F           -3.093422214460     0.805190444465     1.680031998125
    C           -1.385771675380     1.393463900992     0.173599204798
    C           -0.082605734303     0.757972709906    -0.046472883760
    C            1.043714851132     1.540600343490    -0.308845057613
    C            2.282825170789     0.967211237207    -0.520143897364
    C            2.420416622007    -0.426133070340    -0.470607054411
    C            1.302890160736    -1.221089978636    -0.201905883641
    C            0.061959194144    -0.637263283028     0.000741502340
    S            3.928606763779    -1.306190436355    -0.680976758833
    C            5.180995212928     0.000764404654    -0.818967706540
    O           -3.227840557261    -1.845362902961     0.697614831647
    O           -1.578534292530     2.589190993030     0.143842729592
    H            3.127580346885     1.609816145243    -0.741446350112
    H            0.921207754240     2.617776604537    -0.345428290005
    H           -0.910132120668    -2.457827978410     0.282645975874
    H            1.406018885676    -2.302366253728    -0.146784212271
    H            4.849856438291     0.924671424305    -0.341078755276
    H            6.074380331549    -0.362844749624    -0.309407081518
    H            5.412632399448     0.203385343374    -1.866810179969

gradient() will perform analytic gradient computation.

*** tstart() called on cpu-spot-dy-c5n2xlarge-1
*** at Tue Jun 22 03:43:12 2021

   => Loading Basis Set <=

    Name: 6-31+G*
    Role: ORBITAL
    Keyword: BASIS
    atoms 1             entry N          line   138 file /fsx/users/francis/anaconda3/envs/poltype-dev/share/psi4/basis/6-31pgs.gbs 
    atoms 2-3, 6-12, 14 entry C          line   119 file /fsx/users/francis/anaconda3/envs/poltype-dev/share/psi4/basis/6-31pgs.gbs 
    atoms 4-5           entry F          line   176 file /fsx/users/francis/anaconda3/envs/poltype-dev/share/psi4/basis/6-31pgs.gbs 
    atoms 13            entry S          line   344 file /fsx/users/francis/anaconda3/envs/poltype-dev/share/psi4/basis/6-31pgs.gbs 
    atoms 15-16         entry O          line   157 file /fsx/users/francis/anaconda3/envs/poltype-dev/share/psi4/basis/6-31pgs.gbs 
    atoms 17-23         entry H          line    46 file /fsx/users/francis/anaconda3/envs/poltype-dev/share/psi4/basis/6-31pgs.gbs 


         ---------------------------------------------------------
                                   SCF
               by Justin Turney, Rob Parrish, Andy Simmonett
                          and Daniel G. A. Smith
                              RKS Reference
                        8 Threads,  15258 MiB Core
         ---------------------------------------------------------

  ==> Geometry <==

    Molecular point group: c1
    Full point group: C1

    Geometry (in Angstrom), charge = 0, multiplicity = 1:

       Center              X                  Y                   Z               Mass       
    ------------   -----------------  -----------------  -----------------  -----------------
         N           -1.040854594694    -1.453156332706     0.258595064423    14.003074004430
         C           -2.331795259211    -1.058773255581     0.488136134187    12.000000000000
         C           -2.587069228753     0.463125907692     0.467304976218    12.000000000000
         F           -3.542116008312     0.701242728420    -0.467643459809    18.998403162730
         F           -3.093422214460     0.805190444465     1.680031998125    18.998403162730
         C           -1.385771675380     1.393463900992     0.173599204798    12.000000000000
         C           -0.082605734303     0.757972709906    -0.046472883760    12.000000000000
         C            1.043714851132     1.540600343490    -0.308845057613    12.000000000000
         C            2.282825170789     0.967211237207    -0.520143897364    12.000000000000
         C            2.420416622007    -0.426133070340    -0.470607054411    12.000000000000
         C            1.302890160736    -1.221089978636    -0.201905883641    12.000000000000
         C            0.061959194144    -0.637263283028     0.000741502340    12.000000000000
         S            3.928606763779    -1.306190436355    -0.680976758833    31.972071174400
         C            5.180995212928     0.000764404654    -0.818967706540    12.000000000000
         O           -3.227840557261    -1.845362902961     0.697614831647    15.994914619570
         O           -1.578534292530     2.589190993030     0.143842729592    15.994914619570
         H            3.127580346885     1.609816145243    -0.741446350112     1.007825032230
         H            0.921207754240     2.617776604537    -0.345428290005     1.007825032230
         H           -0.910132120668    -2.457827978410     0.282645975874     1.007825032230
         H            1.406018885676    -2.302366253728    -0.146784212271     1.007825032230
         H            4.849856438291     0.924671424305    -0.341078755276     1.007825032230
         H            6.074380331549    -0.362844749624    -0.309407081518     1.007825032230
         H            5.412632399448     0.203385343374    -1.866810179969     1.007825032230

  Running in c1 symmetry.

  Rotational constants: A =      0.03961  B =      0.00832  C =      0.00715 [cm^-1]
  Rotational constants: A =   1187.56232  B =    249.36976  C =    214.46439 [MHz]
  Nuclear repulsion = 1189.189204653423303

  Charge       = 0
  Multiplicity = 1
  Electrons    = 124
  Nalpha       = 62
  Nbeta        = 62

  ==> Algorithm <==

  SCF Algorithm Type is DF.
  DIIS enabled.
  MOM disabled.
  Fractional occupation disabled.
  Guess Type is READ.
  Energy threshold   = 1.00e-08
  Density threshold  = 1.00e-08
  Integral threshold = 0.00e+00

  ==> Primary Basis <==

  Basis Set: 6-31+G*
    Blend: 6-31+G*
    Number of shells: 144
    Number of basis function: 322
    Number of Cartesian functions: 322
    Spherical Harmonics?: false
    Max angular momentum: 2

  ==> DFT Potential <==

   => Composite Functional: WB97X-D <= 

    wB97X-D Hyb-GGA Exchange-Correlation Functional

    J.-D. Chai and M. Head-Gordon, Phys. Chem. Chem. Phys. 10, 6615 (2008)

    Deriv               =              1
    GGA                 =           TRUE
    Meta                =          FALSE

    Exchange Hybrid     =           TRUE
    MP2 Hybrid          =          FALSE

   => Exchange-Correlation Functionals <=

    1.0000   wB97D range-separated functional

   => Exact (HF) Exchange <=

    0.7780            HF,LR [omega = 0.2000]
    0.2220               HF 

   => Molecular Quadrature <=

    Radial Scheme          =       TREUTLER
    Pruning Scheme         =           FLAT
    Nuclear Scheme         =       TREUTLER

    BS radius alpha        =              1
    Pruning alpha          =              1
    Radial Points          =             75
    Spherical Points       =            302
    Total Points           =         520851
    Total Blocks           =           3885
    Max Points             =            256
    Max Functions          =            288

   => WB97X-D: Empirical Dispersion <=

    Chai and Head-Gordon Dispersion Correction
    Chai, J.-D.; Head-Gordon, M. (2010), J. Chem. Phys., 132: 6615-6620

        s6 =       1.000000

   => Loading Basis Set <=

    Name: (6-31+G* AUX)
    Role: JKFIT
    Keyword: DF_BASIS_SCF
    atoms 1             entry N          line   252 file /fsx/users/francis/anaconda3/envs/poltype-dev/share/psi4/basis/heavy-aug-cc-pvdz-jkfit.gbs 
    atoms 2-3, 6-12, 14 entry C          line   194 file /fsx/users/francis/anaconda3/envs/poltype-dev/share/psi4/basis/heavy-aug-cc-pvdz-jkfit.gbs 
    atoms 4-5           entry F          line   368 file /fsx/users/francis/anaconda3/envs/poltype-dev/share/psi4/basis/heavy-aug-cc-pvdz-jkfit.gbs 
    atoms 13            entry S          line   730 file /fsx/users/francis/anaconda3/envs/poltype-dev/share/psi4/basis/heavy-aug-cc-pvdz-jkfit.gbs 
    atoms 15-16         entry O          line   310 file /fsx/users/francis/anaconda3/envs/poltype-dev/share/psi4/basis/heavy-aug-cc-pvdz-jkfit.gbs 
    atoms 17-23         entry H          line   116 file /fsx/users/francis/anaconda3/envs/poltype-dev/share/psi4/basis/heavy-aug-cc-pvdz-jkfit.gbs 

   => Loading Basis Set <=

    Name: 6-31+G*
    Role: ORBITAL
    Keyword: BASIS
    atoms 1             entry N          line   138 file /fsx/users/francis/anaconda3/envs/poltype-dev/share/psi4/basis/6-31pgs.gbs 
    atoms 2-3, 6-12, 14 entry C          line   119 file /fsx/users/francis/anaconda3/envs/poltype-dev/share/psi4/basis/6-31pgs.gbs 
    atoms 4-5           entry F          line   176 file /fsx/users/francis/anaconda3/envs/poltype-dev/share/psi4/basis/6-31pgs.gbs 
    atoms 13            entry S          line   344 file /fsx/users/francis/anaconda3/envs/poltype-dev/share/psi4/basis/6-31pgs.gbs 
    atoms 15-16         entry O          line   157 file /fsx/users/francis/anaconda3/envs/poltype-dev/share/psi4/basis/6-31pgs.gbs 
    atoms 17-23         entry H          line    46 file /fsx/users/francis/anaconda3/envs/poltype-dev/share/psi4/basis/6-31pgs.gbs 

  Reading orbitals from file 180, no projection.

  ==> Pre-Iterations <==

   -------------------------------------------------------
    Irrep   Nso     Nmo     Nalpha   Nbeta   Ndocc  Nsocc
   -------------------------------------------------------
     A        322     322       0       0       0       0
   -------------------------------------------------------
    Total     322     322      62      62      62       0
   -------------------------------------------------------

  ==> Integral Setup <==

  ==> DiskDFJK: Density-Fitted J/K Matrices <==

    J tasked:                  Yes
    K tasked:                  Yes
    wK tasked:                 Yes
    Omega:               2.000E-01
    OpenMP threads:              8
    Integrals threads:           8
    Memory [MiB]:             8433
    Algorithm:                Core
    Integral Cache:           NONE
    Schwarz Cutoff:          1E-12
    Fitting Condition:       1E-10

   => Auxiliary Basis Set <=

  Basis Set: (6-31+G* AUX)
    Blend: HEAVY-AUG-CC-PVDZ-JKFIT
    Number of shells: 523
    Number of basis function: 1840
    Number of Cartesian functions: 1840
    Spherical Harmonics?: false
    Max angular momentum: 3

  Cached 100.0% of DFT collocation blocks in 2.940 [GiB].

  Minimum eigenvalue in the overlap matrix is 4.5003596128E-07.
  Using Symmetric Orthogonalization.

  SCF Guess: Orbitals guess was supplied from a previous computation.

  ==> Iterations <==

                           Total Energy        Delta E     RMS |[F,P]|

   @DF-RKS iter   0: -1188.37293582089910   -1.18837e+03   2.24677e-03 
   @DF-RKS iter   1: -1188.11249613605878    2.60440e-01   3.16444e-04 DIIS
   @DF-RKS iter   2: -1188.11403379649005   -1.53766e-03   3.40459e-04 DIIS
   @DF-RKS iter   3: -1188.11867841225626   -4.64462e-03   8.31883e-05 DIIS
   @DF-RKS iter   4: -1188.11892876791808   -2.50356e-04   2.56105e-05 DIIS
   @DF-RKS iter   5: -1188.11896163983533   -3.28719e-05   1.11077e-05 DIIS
   @DF-RKS iter   6: -1188.11896789475577   -6.25492e-06   2.40257e-06 DIIS
   @DF-RKS iter   7: -1188.11896848269066   -5.87935e-07   9.88139e-07 DIIS
   @DF-RKS iter   8: -1188.11896862482786   -1.42137e-07   5.58710e-07 DIIS
   @DF-RKS iter   9: -1188.11896865854442   -3.37166e-08   2.18209e-07 DIIS
   @DF-RKS iter  10: -1188.11896866605707   -7.51265e-09   1.03894e-07 DIIS
   @DF-RKS iter  11: -1188.11896866766438   -1.60730e-09   3.96196e-08 DIIS
   @DF-RKS iter  12: -1188.11896866789698   -2.32603e-10   1.91501e-08 DIIS
   @DF-RKS iter  13: -1188.11896866794837   -5.13865e-11   6.57480e-09 DIIS
  Energy and wave function converged.


  ==> Post-Iterations <==

    Orbital Energies [Eh]
    ---------------------

    Doubly Occupied:                                                      

       1A    -89.084872     2A    -24.870550     3A    -24.870188  
       4A    -19.300965     5A    -19.291560     6A    -14.540315  
       7A    -10.499068     8A    -10.452293     9A    -10.426983  
      10A    -10.404860    11A    -10.387645    12A    -10.355576  
      13A    -10.350140    14A    -10.346770    15A    -10.345848  
      16A    -10.340868    17A     -8.102667    18A     -6.053317  
      19A     -6.048874    20A     -6.042860    21A     -1.389061  
      22A     -1.327922    23A     -1.192358    24A     -1.180885  
      25A     -1.098982    26A     -1.007545    27A     -0.945235  
      28A     -0.907578    29A     -0.889219    30A     -0.869431  
      31A     -0.800966    32A     -0.765891    33A     -0.753807  
      34A     -0.745942    35A     -0.697174    36A     -0.683445  
      37A     -0.668724    38A     -0.646450    39A     -0.630474  
      40A     -0.592715    41A     -0.588761    42A     -0.568137  
      43A     -0.562543    44A     -0.558288    45A     -0.554407  
      46A     -0.554209    47A     -0.548448    48A     -0.534428  
      49A     -0.517883    50A     -0.515476    51A     -0.507085  
      52A     -0.498778    53A     -0.489397    54A     -0.488266  
      55A     -0.475129    56A     -0.442602    57A     -0.434896  
      58A     -0.398359    59A     -0.394287    60A     -0.363809  
      61A     -0.340368    62A     -0.318301  

    Virtual:                                                              

      63A     -0.041762    64A      0.015279    65A      0.039869  
      66A      0.046000    67A      0.057869    68A      0.066502  
      69A      0.068955    70A      0.073518    71A      0.080569  
      72A      0.086218    73A      0.094404    74A      0.097689  
      75A      0.105551    76A      0.111933    77A      0.114951  
      78A      0.117262    79A      0.117996    80A      0.135320  
      81A      0.139108    82A      0.140140    83A      0.144782  
      84A      0.151909    85A      0.157028    86A      0.166465  
      87A      0.174212    88A      0.176094    89A      0.178229  
      90A      0.180911    91A      0.183275    92A      0.193357  
      93A      0.197763    94A      0.201584    95A      0.207274  
      96A      0.208057    97A      0.216333    98A      0.221655  
      99A      0.222122   100A      0.231444   101A      0.235610  
     102A      0.239671   103A      0.243718   104A      0.245438  
     105A      0.250354   106A      0.251393   107A      0.262783  
     108A      0.265734   109A      0.270187   110A      0.277465  
     111A      0.280187   112A      0.290226   113A      0.292840  
     114A      0.296155   115A      0.303190   116A      0.308863  
     117A      0.315198   118A      0.318412   119A      0.321696  
     120A      0.328634   121A      0.332376   122A      0.338139  
     123A      0.341122   124A      0.344704   125A      0.361646  
     126A      0.362678   127A      0.367910   128A      0.376483  
     129A      0.384202   130A      0.389373   131A      0.394401  
     132A      0.399333   133A      0.403307   134A      0.407796  
     135A      0.413035   136A      0.418563   137A      0.423806  
     138A      0.439311   139A      0.449582   140A      0.452700  
     141A      0.460468   142A      0.474636   143A      0.478104  
     144A      0.487356   145A      0.509054   146A      0.519536  
     147A      0.532983   148A      0.533820   149A      0.547244  
     150A      0.556231   151A      0.578011   152A      0.583372  
     153A      0.594377   154A      0.609021   155A      0.617296  
     156A      0.634098   157A      0.655218   158A      0.671857  
     159A      0.691395   160A      0.713636   161A      0.728180  
     162A      0.747009   163A      0.754434   164A      0.759873  
     165A      0.770368   166A      0.777577   167A      0.789296  
     168A      0.801966   169A      0.810747   170A      0.824582  
     171A      0.831738   172A      0.854106   173A      0.865629  
     174A      0.875603   175A      0.889744   176A      0.890821  
     177A      0.900241   178A      0.920887   179A      0.927718  
     180A      0.934114   181A      0.961714   182A      0.964372  
     183A      0.982648   184A      0.985980   185A      1.024050  
     186A      1.035293   187A      1.044667   188A      1.058882  
     189A      1.070363   190A      1.081043   191A      1.096464  
     192A      1.097790   193A      1.120787   194A      1.158017  
     195A      1.161247   196A      1.175616   197A      1.204907  
     198A      1.210885   199A      1.214621   200A      1.224644  
     201A      1.233542   202A      1.244851   203A      1.271478  
     204A      1.284314   205A      1.287903   206A      1.328516  
     207A      1.330341   208A      1.336192   209A      1.351329  
     210A      1.390721   211A      1.405756   212A      1.414089  
     213A      1.417941   214A      1.428200   215A      1.441364  
     216A      1.450337   217A      1.458268   218A      1.466973  
     219A      1.478512   220A      1.489690   221A      1.512788  
     222A      1.517837   223A      1.526301   224A      1.539556  
     225A      1.556617   226A      1.603639   227A      1.629472  
     228A      1.661583   229A      1.675844   230A      1.685626  
     231A      1.718008   232A      1.749810   233A      1.761135  
     234A      1.762619   235A      1.764048   236A      1.768915  
     237A      1.782360   238A      1.789660   239A      1.793174  
     240A      1.831643   241A      1.841614   242A      1.880262  
     243A      1.895275   244A      1.900278   245A      1.917367  
     246A      1.925144   247A      1.926439   248A      1.967415  
     249A      1.971451   250A      1.975731   251A      1.984323  
     252A      2.021596   253A      2.046791   254A      2.057653  
     255A      2.066330   256A      2.070823   257A      2.095508  
     258A      2.120300   259A      2.122207   260A      2.143578  
     261A      2.178654   262A      2.180479   263A      2.189688  
     264A      2.217856   265A      2.226707   266A      2.238114  
     267A      2.259936   268A      2.265367   269A      2.279346  
     270A      2.285343   271A      2.322000   272A      2.324963  
     273A      2.331623   274A      2.356757   275A      2.362600  
     276A      2.386797   277A      2.395542   278A      2.434409  
     279A      2.481249   280A      2.490777   281A      2.532308  
     282A      2.560972   283A      2.608190   284A      2.656373  
     285A      2.693118   286A      2.702653   287A      2.735996  
     288A      2.766828   289A      2.769173   290A      2.790337  
     291A      2.796994   292A      2.843587   293A      2.851615  
     294A      2.885157   295A      2.933852   296A      2.973879  
     297A      2.989509   298A      3.058496   299A      3.159159  
     300A      3.192024   301A      3.226557   302A      3.258938  
     303A      3.374982   304A      3.428892   305A      3.518982  
     306A      3.528175   307A      4.043636   308A      4.303364  
     309A      4.317001   310A      4.355866   311A      4.367604  
     312A      4.395658   313A      4.431725   314A      4.489539  
     315A      4.495116   316A      4.534276   317A      4.604460  
     318A      4.824515   319A      4.887284   320A      5.170422  
     321A      5.717741   322A      7.267733  

    Final Occupation by Irrep:
              A 
    DOCC [    62 ]

  @DF-RKS Final Energy: -1188.11896866794837

   => Energetics <=

    Nuclear Repulsion Energy =           1189.1892046534233032
    One-Electron Energy =               -3992.3434330014551961
    Two-Electron Energy =                1704.6164352848920771
    DFT Exchange-Correlation Energy =     -89.5677010643871938
    Empirical Dispersion Energy =          -0.0134745404211093
    VV10 Nonlocal Energy =                  0.0000000000000000
    Total Energy =                      -1188.1189686679483657

Computation Completed


Properties will be evaluated at   0.000000,   0.000000,   0.000000 [a0]

Properties computed using the SCF density matrix

  Nuclear Dipole Moment: [e a0]
     X:    25.9191      Y:    -1.2297      Z:    -4.4098

  Electronic Dipole Moment: [e a0]
     X:   -22.7203      Y:     0.7179      Z:     3.8864

  Dipole Moment: [e a0]
     X:     3.1987      Y:    -0.5118      Z:    -0.5234     Total:     3.2814

  Dipole Moment: [D]
     X:     8.1304      Y:    -1.3008      Z:    -1.3303     Total:     8.3405


*** tstop() called on cpu-spot-dy-c5n2xlarge-1 at Tue Jun 22 03:44:16 2021
Module time:
	user time   =     479.30 seconds =       7.99 minutes
	system time =       6.67 seconds =       0.11 minutes
	total time  =         64 seconds =       1.07 minutes
Total time:
	user time   =    1199.97 seconds =      20.00 minutes
	system time =      20.94 seconds =       0.35 minutes
	total time  =        165 seconds =       2.75 minutes

*** tstart() called on cpu-spot-dy-c5n2xlarge-1
*** at Tue Jun 22 03:44:16 2021


         ------------------------------------------------------------
                                   SCF GRAD                          
                          Rob Parrish, Justin Turney,                
                       Andy Simmonett, and Alex Sokolov              
         ------------------------------------------------------------

  ==> Geometry <==

    Molecular point group: c1
    Full point group: C1

    Geometry (in Angstrom), charge = 0, multiplicity = 1:

       Center              X                  Y                   Z               Mass       
    ------------   -----------------  -----------------  -----------------  -----------------
         N           -1.040854594694    -1.453156332706     0.258595064423    14.003074004430
         C           -2.331795259211    -1.058773255581     0.488136134187    12.000000000000
         C           -2.587069228753     0.463125907692     0.467304976218    12.000000000000
         F           -3.542116008312     0.701242728420    -0.467643459809    18.998403162730
         F           -3.093422214460     0.805190444465     1.680031998125    18.998403162730
         C           -1.385771675380     1.393463900992     0.173599204798    12.000000000000
         C           -0.082605734303     0.757972709906    -0.046472883760    12.000000000000
         C            1.043714851132     1.540600343490    -0.308845057613    12.000000000000
         C            2.282825170789     0.967211237207    -0.520143897364    12.000000000000
         C            2.420416622007    -0.426133070340    -0.470607054411    12.000000000000
         C            1.302890160736    -1.221089978636    -0.201905883641    12.000000000000
         C            0.061959194144    -0.637263283028     0.000741502340    12.000000000000
         S            3.928606763779    -1.306190436355    -0.680976758833    31.972071174400
         C            5.180995212928     0.000764404654    -0.818967706540    12.000000000000
         O           -3.227840557261    -1.845362902961     0.697614831647    15.994914619570
         O           -1.578534292530     2.589190993030     0.143842729592    15.994914619570
         H            3.127580346885     1.609816145243    -0.741446350112     1.007825032230
         H            0.921207754240     2.617776604537    -0.345428290005     1.007825032230
         H           -0.910132120668    -2.457827978410     0.282645975874     1.007825032230
         H            1.406018885676    -2.302366253728    -0.146784212271     1.007825032230
         H            4.849856438291     0.924671424305    -0.341078755276     1.007825032230
         H            6.074380331549    -0.362844749624    -0.309407081518     1.007825032230
         H            5.412632399448     0.203385343374    -1.866810179969     1.007825032230

  Nuclear repulsion = 1189.189204653423076

  ==> Basis Set <==

  Basis Set: 6-31+G*
    Blend: 6-31+G*
    Number of shells: 144
    Number of basis function: 322
    Number of Cartesian functions: 322
    Spherical Harmonics?: false
    Max angular momentum: 2

  ==> DFJKGrad: Density-Fitted SCF Gradients <==

    Gradient:                    1
    J tasked:                  Yes
    K tasked:                  Yes
    wK tasked:                 Yes
    Omega:               2.000E-01
    OpenMP threads:              8
    Integrals threads:           8
    Memory [MiB]:            11444
    Schwarz Cutoff:          0E+00
    Fitting Condition:       1E-10

   => Auxiliary Basis Set <=

  Basis Set: (6-31+G* AUX)
    Blend: HEAVY-AUG-CC-PVDZ-JKFIT
    Number of shells: 523
    Number of basis function: 1840
    Number of Cartesian functions: 1840
    Spherical Harmonics?: false
    Max angular momentum: 3

  ==> DFT Potential <==

   => Composite Functional: WB97X-D <= 

    wB97X-D Hyb-GGA Exchange-Correlation Functional

    J.-D. Chai and M. Head-Gordon, Phys. Chem. Chem. Phys. 10, 6615 (2008)

    Deriv               =              1
    GGA                 =           TRUE
    Meta                =          FALSE

    Exchange Hybrid     =           TRUE
    MP2 Hybrid          =          FALSE

   => Exchange-Correlation Functionals <=

    1.0000   wB97D range-separated functional

   => Exact (HF) Exchange <=

    0.7780            HF,LR [omega = 0.2000]
    0.2220               HF 

   => Molecular Quadrature <=

    Radial Scheme          =       TREUTLER
    Pruning Scheme         =           FLAT
    Nuclear Scheme         =       TREUTLER

    BS radius alpha        =              1
    Pruning alpha          =              1
    Radial Points          =             75
    Spherical Points       =            302
    Total Points           =         520851
    Total Blocks           =           3885
    Max Points             =            256
    Max Functions          =            288


  -Total Gradient:
     Atom            X                  Y                   Z
    ------   -----------------  -----------------  -----------------
       1        0.001675432038     0.002740493083    -0.000625537106
       2        0.000945404186     0.002412354320    -0.000278024776
       3        0.004966725070    -0.001208648253    -0.000553638049
       4       -0.001594513596     0.000466514361    -0.000779012489
       5       -0.001066630654     0.000551746896     0.000872915425
       6       -0.002732986148    -0.002138962449     0.000672292669
       7        0.001730848900    -0.001355744729    -0.000324986101
       8        0.000116505544    -0.000074258989    -0.000139903756
       9       -0.001144474259    -0.002955396758     0.002580465177
      10       -0.000170532793     0.001988229146    -0.002220024340
      11       -0.000147136981     0.001544216925     0.000909022702
      12        0.003436980483    -0.000270412108    -0.000562580200
      13       -0.001886502233    -0.002355900445    -0.000731765765
      14       -0.000233468852     0.000652258054     0.002731645055
      15       -0.001129507970    -0.001773310022     0.000257859965
      16        0.000495626563     0.000437158434    -0.000061553947
      17        0.002244333741     0.000328063038     0.000298041019
      18        0.000278637313    -0.000634184707     0.000091180679
      19       -0.000936574544    -0.000356704820     0.000227291396
      20       -0.000089646842    -0.000234574591     0.000122538637
      21       -0.003018553127     0.002701028004    -0.002709970030
      22       -0.000865568843    -0.000482381814     0.000290598635
      23       -0.000038291474    -0.000536746781    -0.000082704497


*** tstop() called on cpu-spot-dy-c5n2xlarge-1 at Tue Jun 22 03:44:39 2021
Module time:
	user time   =     148.06 seconds =       2.47 minutes
[...]
	 B(9,8,18)        =         2.101901	     120.430037
	 B(9,10,11)       =         2.085941	     119.515599
	 B(9,10,13)       =         2.193336	     125.668920
	 B(10,9,17)       =         2.119946	     121.463957
	 B(10,11,12)      =         2.104082	     120.555025
	 B(10,11,20)      =         2.090108	     119.754363
	 B(10,13,14)      =         1.847066	     105.829063
	 B(11,10,13)      =         2.003555	     114.795274
	 B(12,1,19)       =         2.069593	     118.578936
	 B(12,11,20)      =         2.088984	     119.689984
	 B(13,14,21)      =         1.949411	     111.693044
	 B(13,14,22)      =         1.866933	     106.967375
	 B(13,14,23)      =         1.932333	     110.714507
	 B(21,14,22)      =         1.902698	     109.016565
	 B(21,14,23)      =         1.899313	     108.822611
	 B(22,14,23)      =         1.912642	     109.586323
	 D(1,2,3,4)       =         2.731383	     156.496727
	 D(1,2,3,5)       =        -1.515230	     -86.816260
	 D(1,2,3,6)       =         0.517408	      29.645302
	 D(1,12,7,6)      =         0.011709	       0.670871
	 D(1,12,7,8)      =        -3.100739	    -177.659284
	 D(1,12,11,10)    =         3.108751	     178.118312
	 D(1,12,11,20)    =        -0.037885	      -2.170678
	 D(2,1,12,7)      =        -0.046464	      -2.662195
	 D(2,1,12,11)     =         3.119888	     178.756427
	 D(2,3,6,7)       =        -0.549250	     -31.469720
	 D(2,3,6,16)      =         2.651027	     151.892645
	 D(3,2,1,12)      =        -0.228069	     -13.067391
	 D(3,2,1,19)      =         3.039866	     174.171466
	 D(3,6,7,8)       =        -2.881841	    -165.117342
	 D(3,6,7,12)      =         0.289428	      16.583006
	 D(4,3,2,15)      =        -0.476424	     -27.297072
	 D(4,3,6,7)       =        -2.752539	    -157.708847
	 D(4,3,6,16)      =         0.447738	      25.653518
	 D(5,3,2,15)      =         1.560149	      89.389941
	 D(5,3,6,7)       =         1.483598	      85.003931
	 D(5,3,6,16)      =        -1.599310	     -91.633704
	 D(6,3,2,15)      =        -2.690399	    -154.148497
	 D(6,7,8,9)       =        -3.130411	    -179.359310
	 D(6,7,8,18)      =         0.013995	       0.801881
	 D(6,7,12,11)     =         3.128341	     179.240734
	 D(7,8,9,10)      =         0.012069	       0.691523
	 D(7,8,9,17)      =         3.123919	     178.987353
	 D(7,12,1,19)     =         2.964454	     169.850727
	 D(7,12,11,10)    =        -0.008233	      -0.471713
	 D(7,12,11,20)    =         3.128316	     179.239297
	 D(8,7,6,16)      =         0.197481	      11.314816
	 D(8,7,12,11)     =         0.015893	       0.910580
	 D(8,9,10,11)     =        -0.003926	      -0.224920
	 D(8,9,10,13)     =        -3.115422	    -178.500540
	 D(9,8,7,12)      =        -0.017985	      -1.030459
	 D(9,10,11,12)    =         0.002134	       0.122284
	 D(9,10,11,20)    =        -3.134411	    -179.588541
	*D(9,10,13,14)    =         0.080183	       4.594170
	 D(10,9,8,18)     =        -3.132402	    -179.473417
	*D(10,13,14,21)   =         0.421011	      24.122171
	 D(10,13,14,22)   =         2.501617	     143.332108
	 D(10,13,14,23)   =        -1.698585	     -97.321728
	 D(11,10,9,17)    =        -3.115007	    -178.476745
	*D(11,10,13,14)   =        -3.032560	    -173.752873
	 D(11,12,1,19)    =        -0.152379	      -8.730651
	 D(12,1,2,15)     =         2.980483	     170.769070
	 D(12,7,6,16)     =        -2.914435	    -166.984836
	 D(12,7,8,18)     =         3.126421	     179.130732
	 D(12,11,10,13)   =         3.116795	     178.579185
	 D(13,10,9,17)    =         0.056682	       3.247635
	 D(13,10,11,20)   =        -0.019751	      -1.131640
	 D(15,2,1,19)     =        -0.034768	      -1.992074
	 D(17,9,8,18)     =        -0.020553	      -1.177587

	Current energy   :     -1188.1204349923

	Energy change for the previous step:
		Projected    :        -0.0000118334
		Actual       :        -0.0000125640

	Performing BFGS update.
	Previous computed or guess Hessian on step 1.
	Steps to be used in Hessian update: 8 7
	Taking RFO optimization step.
	Going to follow RFO solution 1.
	Using RFO vector 1.
	Norm of target step-size    0.02354
	Projected energy change by RFO approximation:        -0.0000283280

	Back-transformation to cartesian coordinates...
	Successfully converged to displaced geometry.

	Back-transformation to cartesian coordinates to adjust frozen coordinates...
	Successfully converged to displaced geometry.

	--- Internal Coordinate Step in ANG or DEG, aJ/ANG or AJ/DEG ---
	 ---------------------------------------------------------------------------
	   Coordinate                Previous        Force       Change         New 
	   ----------                --------       ------       ------       ------
	    1 R(1,2)          =      1.370730     0.000077     0.000026     1.370755
	    2 R(1,12)         =      1.399803    -0.001729    -0.000267     1.399535
	    3 R(1,19)         =      1.013019    -0.001233    -0.000227     1.012792
	    4 R(2,3)          =      1.544969    -0.000240     0.000122     1.545091
	    5 R(2,15)         =      1.208537    -0.002941    -0.000255     1.208282
	    6 R(3,4)          =      1.335546    -0.006706    -0.001062     1.334483
	    7 R(3,5)          =      1.378482    -0.013114    -0.001741     1.376740
	    8 R(3,6)          =      1.549012    -0.000776    -0.000156     1.548856
	    9 R(6,7)          =      1.467156     0.000872    -0.000025     1.467131
	   10 R(6,16)         =      1.210293    -0.006574    -0.000607     1.209686
	   11 R(7,8)          =      1.397172    -0.001968    -0.000176     1.396996
	   12 R(7,12)         =      1.406654    -0.002820    -0.000627     1.406027
	   13 R(8,9)          =      1.384494    -0.003150    -0.000591     1.383903
	   14 R(8,18)         =      1.085803    -0.000014     0.000017     1.085821
	   15 R(9,10)         =      1.403207     0.000863     0.000349     1.403556
	   16 R(9,17)         =      1.083057    -0.001271    -0.000249     1.082808
	   17 R(10,11)        =      1.400837    -0.002919    -0.000614     1.400222
	   18 R(10,13)        =      1.764053     0.001114     0.000255     1.764308
	   19 R(11,12)        =      1.389782    -0.001582    -0.000089     1.389693
	   20 R(11,20)        =      1.087282     0.000196     0.000077     1.087359
	   21 R(13,14)        =      1.815495    -0.000657    -0.000527     1.814968
	   22 R(14,21)        =      1.090731    -0.001381    -0.000254     1.090477
	   23 R(14,22)        =      1.091483    -0.000395    -0.000101     1.091382
	   24 R(14,23)        =      1.092214     0.000034     0.000063     1.092277
	   25 B(1,2,3)        =    114.172214    -0.000004     0.001619   114.173833
	   26 B(1,2,15)       =    123.351211     0.000007     0.039950   123.391162
	   27 B(1,12,7)       =    120.664485     0.000011     0.045490   120.709975
	   28 B(1,12,11)      =    119.253552    -0.000013    -0.035622   119.217931
	   29 B(2,1,12)       =    126.284119    -0.000003    -0.010970   126.273149
	   30 B(2,1,19)       =    114.755575     0.000012     0.081625   114.837199
	   31 B(2,3,4)        =    109.842502    -0.000005    -0.067753   109.774749
	   32 B(2,3,5)        =    105.605929    -0.000001     0.045661   105.651590
	   33 B(2,3,6)        =    115.886427     0.000005     0.032076   115.918503
	   34 B(3,2,15)       =    122.360664    -0.000003    -0.023655   122.337009
	   35 B(3,6,7)        =    114.659881    -0.000008    -0.048244   114.611637
	   36 B(3,6,16)       =    119.973571     0.000001    -0.000463   119.973108
	   37 B(4,3,5)        =    108.394832     0.000002     0.007607   108.402439
	   38 B(4,3,6)        =    111.059453    -0.000003    -0.051847   111.007606
	   39 B(5,3,6)        =    105.584365     0.000004     0.044636   105.629001
	   40 B(6,7,8)        =    120.623591    -0.000001     0.010226   120.633817
	   41 B(6,7,12)       =    120.547976    -0.000000    -0.021355   120.526621
	   42 B(7,6,16)       =    125.271385     0.000007     0.054840   125.326225
	   43 B(7,8,9)        =    121.491099     0.000002     0.005832   121.496930
	   44 B(7,8,18)       =    118.078667    -0.000005    -0.042281   118.036386
	   45 B(7,12,11)      =    120.066733     0.000002    -0.011208   120.055525
	   46 B(8,7,12)       =    118.807093     0.000001     0.012905   118.819999
	   47 B(8,9,10)       =    119.556907    -0.000001    -0.010927   119.545980
	   48 B(8,9,17)       =    118.956519    -0.000001     0.003906   118.960426
	   49 B(9,8,18)       =    120.430037     0.000004     0.036562   120.466598
	   50 B(9,10,11)      =    119.515599    -0.000006    -0.012229   119.503370
	   51 B(9,10,13)      =    125.668920    -0.000002    -0.036190   125.632729
	   52 B(10,9,17)      =    121.463957     0.000002     0.004746   121.468704
	   53 B(10,11,12)     =    120.555025     0.000002     0.016472   120.571496
	   54 B(10,11,20)     =    119.754363    -0.000000    -0.010235   119.744128
	   55 B(10,13,14)     =    105.829063     0.000021     0.028761   105.857825
	   56 B(11,10,13)     =    114.795274     0.000008     0.048421   114.843694
	   57 B(12,1,19)      =    118.578936    -0.000008    -0.053997   118.524939
	   58 B(12,11,20)     =    119.689984    -0.000002    -0.006488   119.683497
	   59 B(13,14,21)     =    111.693044     0.000003     0.023357   111.716401
	   60 B(13,14,22)     =    106.967375     0.000012     0.082437   107.049813
	   61 B(13,14,23)     =    110.714507     0.000005     0.025196   110.739703
	   62 B(21,14,22)     =    109.016565    -0.000006    -0.012214   109.004351
	   63 B(21,14,23)     =    108.822611    -0.000008    -0.081531   108.741080
	   64 B(22,14,23)     =    109.586323    -0.000006    -0.036334   109.549988
	   65 D(1,2,3,4)      =    156.496727    -0.000002    -0.308396   156.188331
	   66 D(1,2,3,5)      =    -86.816260    -0.000002    -0.308131   -87.124392
	   67 D(1,2,3,6)      =     29.645302    -0.000001    -0.203721    29.441581
	   68 D(1,12,7,6)     =      0.670871     0.000000     0.026007     0.696877
	   69 D(1,12,7,8)     =   -177.659284    -0.000000    -0.045139  -177.704423
	   70 D(1,12,11,10)   =    178.118312     0.000000     0.036930   178.155242
	   71 D(1,12,11,20)   =     -2.170678    -0.000000    -0.015947    -2.186625
	   72 D(2,1,12,7)     =     -2.662195    -0.000001    -0.435656    -3.097851
	   73 D(2,1,12,11)    =    178.756427    -0.000001    -0.374401   178.382026
	   74 D(2,3,6,7)      =    -31.469720    -0.000000    -0.129090   -31.598810
	   75 D(2,3,6,16)     =    151.892645    -0.000001    -0.240945   151.651700
	   76 D(3,2,1,12)     =    -13.067391     0.000002     0.507451   -12.559939
	   77 D(3,2,1,19)     =    174.171466     0.000002     0.351340   174.522805
	   78 D(3,6,7,8)      =   -165.117342     0.000001     0.286828  -164.830515
	   79 D(3,6,7,12)     =     16.583006     0.000000     0.214352    16.797358
	   80 D(4,3,2,15)     =    -27.297072     0.000001    -0.001769   -27.298841
	   81 D(4,3,6,7)      =   -157.708847     0.000001    -0.015925  -157.724772
	   82 D(4,3,6,16)     =     25.653518     0.000000    -0.127780    25.525737
	   83 D(5,3,2,15)     =     89.389941     0.000001    -0.001504    89.388437
	   84 D(5,3,6,7)      =     85.003931     0.000001    -0.024124    84.979807
	   85 D(5,3,6,16)     =    -91.633704    -0.000000    -0.135979   -91.769683
	   86 D(6,3,2,15)     =   -154.148497     0.000002     0.102906  -154.045591
	   87 D(6,7,8,9)      =   -179.359310    -0.000000    -0.027290  -179.386600
	   88 D(6,7,8,18)     =      0.801881    -0.000000    -0.082457     0.719424
	   89 D(6,7,12,11)    =    179.240734    -0.000000    -0.036096   179.204638
	   90 D(7,8,9,10)     =      0.691523     0.000000     0.031016     0.722539
	   91 D(7,8,9,17)     =    178.987353    -0.000000    -0.052511   178.934842
	   92 D(7,12,1,19)    =    169.850727    -0.000001    -0.265513   169.585214
	   93 D(7,12,11,10)   =     -0.471713     0.000000     0.096952    -0.374761
	   94 D(7,12,11,20)   =    179.239297     0.000000     0.044075   179.283372
	   95 D(8,7,6,16)     =     11.314816     0.000002     0.403178    11.717993
	   96 D(8,7,12,11)    =      0.910580    -0.000000    -0.107242     0.803337
	   97 D(8,9,10,11)    =     -0.224920    -0.000000    -0.042557    -0.267477
	   98 D(8,9,10,13)    =   -178.500540    -0.000000    -0.043439  -178.543979
	   99 D(9,8,7,12)     =     -1.030459     0.000000     0.043390    -0.987069
	  100 D(9,10,11,12)   =      0.122284    -0.000000    -0.021370     0.100914
	  101 D(9,10,11,20)   =   -179.588541     0.000000     0.031529  -179.557012
	  102 *D(9,10,13,14)  =      4.594170    -0.000000    -0.000000     4.594170
	  103 D(10,9,8,18)    =   -179.473417     0.000000     0.087383  -179.386034
	  104 *D(10,13,14,21) =     24.122171    -0.000000    -0.000000    24.122171
	  105 D(10,13,14,22)  =    143.332108     0.000001     0.050213   143.382321
	  106 D(10,13,14,23)  =    -97.321728     0.000001     0.070474   -97.251254
	  107 D(11,10,9,17)   =   -178.476745     0.000000     0.043153  -178.433592
	  108 *D(11,10,13,14) =   -173.752873    -0.000000     0.000000  -173.752873
	  109 D(11,12,1,19)   =     -8.730651    -0.000001    -0.204258    -8.934909
	  110 D(12,1,2,15)    =    170.769070    -0.000001     0.199913   170.968983
	  111 D(12,7,6,16)    =   -166.984836     0.000002     0.330702  -166.654134
	  112 D(12,7,8,18)    =    179.130732    -0.000000    -0.011777   179.118955
	  113 D(12,11,10,13)  =    178.579185    -0.000000    -0.021882   178.557302
	  114 D(13,10,9,17)   =      3.247635     0.000000     0.042271     3.289905
	  115 D(13,10,11,20)  =     -1.131640     0.000000     0.031016    -1.100624
	  116 D(15,2,1,19)    =     -1.992074    -0.000001     0.043801    -1.948272
	  117 D(17,9,8,18)    =     -1.177587     0.000000     0.003856    -1.173731
	 ---------------------------------------------------------------------------
	Successfully symmetrized geometry.

  ==> Convergence Check <==

  Measures of convergence in internal coordinates in au.
  Criteria marked as inactive (o), active & met (*), and active & unmet ( ).
  ---------------------------------------------------------------------------------------------
   Step     Total Energy     Delta E     MAX Force     RMS Force      MAX Disp      RMS Disp   
  ---------------------------------------------------------------------------------------------
    Convergence Criteria             o    2.50e-03 *    1.70e-03 *    1.00e-02 *    6.70e-03 *
  ---------------------------------------------------------------------------------------------
      9   -1188.12043499   -1.26e-05 o    1.59e-03 *    2.08e-04 *    8.86e-03 *    2.18e-03 *  ~
  ---------------------------------------------------------------------------------------------


  **** Optimization is complete! (in 9 steps) ****

  ==> Optimization Summary <==

  Measures of convergence in internal coordinates in au.
  --------------------------------------------------------------------------------------------------------------- ~
   Step         Total Energy             Delta E       MAX Force       RMS Force        MAX Disp        RMS Disp  ~
  --------------------------------------------------------------------------------------------------------------- ~
      1   -1188.119557474641  -1188.119557474641      0.00451853      0.00084395      0.03318662      0.00922881  ~
      2   -1188.119670594720     -0.000113120079      0.00155345      0.00040467      0.07121743      0.01765809  ~
      3   -1188.119751156624     -0.000080561904      0.00528397      0.00077087      0.07082995      0.01849471  ~
      4   -1188.119943471215     -0.000192314591      0.00230339      0.00051646      0.06772393      0.01849159  ~
      5   -1188.120103084466     -0.000159613250      0.00297592      0.00049926      0.06720739      0.01849447  ~
      6   -1188.120257053962     -0.000153969496      0.00173825      0.00037123      0.06104398      0.01849357  ~
      7   -1188.120373859171     -0.000116805209      0.00105041      0.00020806      0.05910149      0.01844731  ~
      8   -1188.120422428300     -0.000048569130      0.00211402      0.00030267      0.03113528      0.00923877  ~
      9   -1188.120434992326     -0.000012564025      0.00159181      0.00020782      0.00885669      0.00217658  ~
  --------------------------------------------------------------------------------------------------------------- ~

	Writing optimization data to binary file.
	Final energy is  -1188.1204349923257
	Final (previous) structure:
	Cartesian Geometry (in Angstrom)
	    N    -1.1388220856  -1.4211612572  -0.1663589004
	    C    -2.4328464819  -0.9953377638  -0.0144541471
	    C    -2.5652661651   0.4631713976   0.4776284903
	    F    -3.7550060274   0.9551803786   0.1224832824
	    F    -2.5153444999   0.3962961258   1.8535817295
	    C    -1.4208258563   1.4223897111   0.0658095987
	    C    -0.1056928769   0.7854351936  -0.0655671183
	    C     1.0567902437   1.5583041601  -0.1238516277
	    C     2.3057505887   0.9767978335  -0.2608594055
	    C     2.4125136965  -0.4189452779  -0.3582951247
	    C     1.2537907900  -1.2047230982  -0.3107773980
	    C     0.0040921909  -0.6129690583  -0.1708726595
	    S     3.9176731710  -1.3281128734  -0.4989812725
	    C     5.2508816849  -0.1048560585  -0.3499234961
	    O    -3.3918241409  -1.7123165340  -0.1783596653
	    O    -1.6398403447   2.6060016863  -0.0603070022
	    H     3.1782606748   1.6158875449  -0.3183282166
	    H     0.9570392402   2.6373718759  -0.0557944186
	    H    -1.0395754542  -2.4021405870  -0.3988179173
	    H     1.3325667490  -2.2869880803  -0.3791767024
	    H     4.9241128246   0.7836355745   0.1918325141
	    H     6.0604934737  -0.5821352847   0.2051151252
	    H     5.6109123378   0.1962947865  -1.3361372367
	Saving final (previous) structure.
			--------------------------
			 OPTKING Finished Execution 
			--------------------------

    Final optimized geometry and variables:
    Molecular point group: c1
    Full point group: C1

    Geometry (in Angstrom), charge = 0, multiplicity = 1:

    N           -1.138822090062    -1.421161262787    -0.166358901053
    C           -2.432846491480    -0.995337767747    -0.014454147162
    C           -2.565266175169     0.463171399413     0.477628492150
    F           -3.755006042131     0.955180382386     0.122483282924
    F           -2.515344509757     0.396296127378     1.853581736737
    C           -1.420825861853     1.422389716662     0.065809598953
    C           -0.105692877287     0.785435196708    -0.065567118547
    C            1.056790247875     1.558304166247    -0.123851628144
    C            2.305750597775     0.976797837366    -0.260859406561
    C            2.412513706026    -0.418945279508    -0.358295126067
    C            1.253790794904    -1.204723102932    -0.310777399211
    C            0.004092190869    -0.612969060671    -0.170872660212
    S            3.917673186414    -1.328112878649    -0.498981274423
    C            5.250881705497    -0.104856058951    -0.349923497524
    O           -3.391824154183    -1.712316540689    -0.178359665971
    O           -1.639840351157     2.606001696523    -0.060307002460
    H            3.178260687252     1.615887551236    -0.318328217852
    H            0.957039243977     2.637371886226    -0.055794418779
    H           -1.039575458319    -2.402140596468    -0.398817918912
    H            1.332566754193    -2.286988089286    -0.379176703849
    H            4.924112843956     0.783635577551     0.191832514847
    H            6.060493497531    -0.582135286948     0.205115126055
    H            5.610912359840     0.196294787267    -1.336137241923

	Removing binary optimization data file.
	Cleaning optimization helper files.

    Psi4 stopped on: Tuesday, 22 June 2021 04:10AM
    Psi4 wall time for execution: 0:28:56.25

*** Psi4 exiting successfully. Buy a developer a beer!
