
    -----------------------------------------------------------------------
          Psi4: An Open-Source Ab Initio Electronic Structure Package
                               Psi4 1.3.2 release

                         Git: Rev {HEAD} ecbda83 


    R. M. Parrish, L. A. Burns, D. G. A. Smith, A. C. Simmonett,
    A. E. DePrince III, E. G. Hohenstein, U. Bozkaya, A. Yu. Sokolov,
    R. Di Remigio, R. M. Richard, J. F. Gonthier, A. M. James,
    H. R. McAlexander, A. Kumar, M. Saitow, X. Wang, B. P. Pritchard,
    P. Verma, H. F. Schaefer III, K. Patkowski, R. A. King, E. F. Valeev,
    F. A. Evangelista, J. M. Turney, T. D. Crawford, and C. D. Sherrill,
    J. Chem. Theory Comput. 13(7) pp 3185--3197 (2017).
    (doi: 10.1021/acs.jctc.7b00174)


                         Additional Contributions by
    P. Kraus, H. Kruse, M. H. Lechner, M. C. Schieber, R. A. Shaw,
    A. Alenaizan, R. Galvelis, Z. L. Glick, S. Lehtola, and J. P. Misiewicz

    -----------------------------------------------------------------------


    Psi4 started on: Monday, 21 June 2021 11:40PM

    Process ID: 18372
    Host:       cpu-spot-dy-c5n2xlarge-1
    PSIDATADIR: /fsx/users/francis/anaconda3/envs/poltype-dev/share/psi4
    Memory:     500.0 MiB
    Threads:    1
    
  ==> Input File <==

--------------------------------------------------------------------------
molecule { 
0 1
 N   -0.448796   -1.224164    0.510557
 C   -1.768163   -1.172212    0.876711
 C   -2.502408    0.182976    0.608002
 F   -3.581245   -0.084727   -0.204892
 F   -2.976170    0.642055    1.816563
 C   -1.670091    1.334531   -0.054812
 C   -0.249718    1.059460   -0.371919
 C    0.548748    2.059337   -0.967664
 C    1.893221    1.818513   -1.275206
 C    2.486634    0.557288   -1.002203
 C    1.684592   -0.440597   -0.397689
 C    0.333196   -0.204987   -0.084682
 S    4.203164    0.235597   -1.359103
 C    4.785591   -1.073411   -0.242608
 O   -2.307424   -2.146195    1.382039
 O   -2.189864    2.420076   -0.295258
 H    2.472190    2.625982   -1.723961
 H    0.092340    3.026405   -1.180533
 H   -0.033298   -2.123422    0.711737
 H    2.106650   -1.420664   -0.184056
 H    4.764139   -0.705554    0.787824
 H    4.175219   -1.973265   -0.351536
 H    5.819530   -1.315088   -0.508274
}
set optking { 
  frozen_dihedral = ("
    11 10 13 14
    9 10 13 14
    21 14 13 10
  ")
}
set {
  geom_maxiter 400
  g_convergence GAU_LOOSE
  dynamic_level 1
}
memory 16GB
set_num_threads(8)
psi4_io.set_default_path("/scratch/Psi4-ligand")
for _ in range(1):
  try:
    set opt_coordinates both
    optimize('wb97x-d/6-31+G*')
    break
  except OptimizationConvergenceError:
    break
  else:
    try:
      set opt_coordinates cartesian
      optimize('wb97x-d/6-31+G*')
      break
    except OptimizationConvergenceError:
      pass
clean()
--------------------------------------------------------------------------

  Memory set to  14.901 GiB by Python driver.
  Threads set to 8 by Python driver.
gradient() will perform analytic gradient computation.

*** tstart() called on cpu-spot-dy-c5n2xlarge-1
*** at Mon Jun 21 23:40:45 2021

   => Loading Basis Set <=

    Name: 6-31+G*
    Role: ORBITAL
    Keyword: BASIS
    atoms 1             entry N          line   138 file /fsx/users/francis/anaconda3/envs/poltype-dev/share/psi4/basis/6-31pgs.gbs 
    atoms 2-3, 6-12, 14 entry C          line   119 file /fsx/users/francis/anaconda3/envs/poltype-dev/share/psi4/basis/6-31pgs.gbs 
    atoms 4-5           entry F          line   176 file /fsx/users/francis/anaconda3/envs/poltype-dev/share/psi4/basis/6-31pgs.gbs 
    atoms 13            entry S          line   344 file /fsx/users/francis/anaconda3/envs/poltype-dev/share/psi4/basis/6-31pgs.gbs 
    atoms 15-16         entry O          line   157 file /fsx/users/francis/anaconda3/envs/poltype-dev/share/psi4/basis/6-31pgs.gbs 
    atoms 17-23         entry H          line    46 file /fsx/users/francis/anaconda3/envs/poltype-dev/share/psi4/basis/6-31pgs.gbs 


         ---------------------------------------------------------
                                   SCF
               by Justin Turney, Rob Parrish, Andy Simmonett
                          and Daniel G. A. Smith
                              RKS Reference
                        8 Threads,  15258 MiB Core
         ---------------------------------------------------------

  ==> Geometry <==

    Molecular point group: c1
    Full point group: C1

    Geometry (in Angstrom), charge = 0, multiplicity = 1:

       Center              X                  Y                   Z               Mass       
    ------------   -----------------  -----------------  -----------------  -----------------
         N           -0.521354669058    -1.441885484353     0.616371299337    14.003074004430
         C           -1.840721669058    -1.389933484353     0.982525299337    12.000000000000
         C           -2.574966669058    -0.034745484353     0.713816299337    12.000000000000
         F           -3.653803669058    -0.302448484353    -0.099077700663    18.998403162730
         F           -3.048728669058     0.424333515647     1.922377299337    18.998403162730
         C           -1.742649669058     1.116809515647     0.051002299337    12.000000000000
         C           -0.322276669058     0.841738515647    -0.266104700663    12.000000000000
         C            0.476189330942     1.841615515647    -0.861849700663    12.000000000000
         C            1.820662330942     1.600791515647    -1.169391700663    12.000000000000
         C            2.414075330942     0.339566515647    -0.896388700663    12.000000000000
         C            1.612033330942    -0.658318484353    -0.291874700663    12.000000000000
         C            0.260637330942    -0.422708484353     0.021132299337    12.000000000000
         S            4.130605330942     0.017875515647    -1.253288700663    31.972071174400
         C            4.713032330942    -1.291132484353    -0.136793700663    12.000000000000
         O           -2.379982669058    -2.363916484353     1.487853299337    15.994914619570
         O           -2.262422669058     2.202354515647    -0.189443700663    15.994914619570
         H            2.399631330942     2.408260515647    -1.618146700663     1.007825032230
         H            0.019781330942     2.808683515647    -1.074718700663     1.007825032230
         H           -0.105856669058    -2.341143484353     0.817551299337     1.007825032230
         H            2.034091330942    -1.638385484353    -0.078241700663     1.007825032230
         H            4.691580330942    -0.923275484353     0.893638299337     1.007825032230
         H            4.102660330942    -2.190986484353    -0.245721700663     1.007825032230
         H            5.746971330942    -1.532809484353    -0.402459700663     1.007825032230

  Running in c1 symmetry.

  Rotational constants: A =      0.03471  B =      0.00854  C =      0.00718 [cm^-1]
  Rotational constants: A =   1040.65791  B =    256.16475  C =    215.15148 [MHz]
  Nuclear repulsion = 1177.019379475570076

  Charge       = 0
  Multiplicity = 1
  Electrons    = 124
  Nalpha       = 62
  Nbeta        = 62

  ==> Algorithm <==

  SCF Algorithm Type is DF.
  DIIS enabled.
  MOM disabled.
  Fractional occupation disabled.
  Guess Type is SAD.
  Energy threshold   = 1.00e-08
  Density threshold  = 1.00e-08
  Integral threshold = 0.00e+00

  ==> Primary Basis <==

  Basis Set: 6-31+G*
    Blend: 6-31+G*
    Number of shells: 144
    Number of basis function: 322
    Number of Cartesian functions: 322
    Spherical Harmonics?: false
    Max angular momentum: 2

  ==> DFT Potential <==

   => Composite Functional: WB97X-D <= 

    wB97X-D Hyb-GGA Exchange-Correlation Functional

    J.-D. Chai and M. Head-Gordon, Phys. Chem. Chem. Phys. 10, 6615 (2008)

    Deriv               =              1
    GGA                 =           TRUE
    Meta                =          FALSE

    Exchange Hybrid     =           TRUE
    MP2 Hybrid          =          FALSE

   => Exchange-Correlation Functionals <=

    1.0000   wB97D range-separated functional

   => Exact (HF) Exchange <=

    0.7780            HF,LR [omega = 0.2000]
    0.2220               HF 

   => Molecular Quadrature <=

    Radial Scheme          =       TREUTLER
    Pruning Scheme         =           FLAT
    Nuclear Scheme         =       TREUTLER

    BS radius alpha        =              1
    Pruning alpha          =              1
    Radial Points          =             75
    Spherical Points       =            302
    Total Points           =         520857
    Total Blocks           =           3864
    Max Points             =            256
    Max Functions          =            284

   => WB97X-D: Empirical Dispersion <=

    Chai and Head-Gordon Dispersion Correction
    Chai, J.-D.; Head-Gordon, M. (2010), J. Chem. Phys., 132: 6615-6620

        s6 =       1.000000

   => Loading Basis Set <=

    Name: (6-31+G* AUX)
    Role: JKFIT
    Keyword: DF_BASIS_SCF
    atoms 1             entry N          line   252 file /fsx/users/francis/anaconda3/envs/poltype-dev/share/psi4/basis/heavy-aug-cc-pvdz-jkfit.gbs 
    atoms 2-3, 6-12, 14 entry C          line   194 file /fsx/users/francis/anaconda3/envs/poltype-dev/share/psi4/basis/heavy-aug-cc-pvdz-jkfit.gbs 
    atoms 4-5           entry F          line   368 file /fsx/users/francis/anaconda3/envs/poltype-dev/share/psi4/basis/heavy-aug-cc-pvdz-jkfit.gbs 
    atoms 13            entry S          line   730 file /fsx/users/francis/anaconda3/envs/poltype-dev/share/psi4/basis/heavy-aug-cc-pvdz-jkfit.gbs 
    atoms 15-16         entry O          line   310 file /fsx/users/francis/anaconda3/envs/poltype-dev/share/psi4/basis/heavy-aug-cc-pvdz-jkfit.gbs 
    atoms 17-23         entry H          line   116 file /fsx/users/francis/anaconda3/envs/poltype-dev/share/psi4/basis/heavy-aug-cc-pvdz-jkfit.gbs 

  ==> Pre-Iterations <==

   -------------------------------------------------------
    Irrep   Nso     Nmo     Nalpha   Nbeta   Ndocc  Nsocc
   -------------------------------------------------------
     A        322     322       0       0       0       0
   -------------------------------------------------------
    Total     322     322      62      62      62       0
   -------------------------------------------------------

  ==> Integral Setup <==

  ==> DiskDFJK: Density-Fitted J/K Matrices <==

    J tasked:                  Yes
    K tasked:                  Yes
    wK tasked:                 Yes
    Omega:               2.000E-01
    OpenMP threads:              8
    Integrals threads:           8
    Memory [MiB]:             8430
    Algorithm:                Core
    Integral Cache:           NONE
    Schwarz Cutoff:          1E-12
    Fitting Condition:       1E-10

   => Auxiliary Basis Set <=

  Basis Set: (6-31+G* AUX)
    Blend: HEAVY-AUG-CC-PVDZ-JKFIT
    Number of shells: 523
    Number of basis function: 1840
    Number of Cartesian functions: 1840
    Spherical Harmonics?: false
    Max angular momentum: 3

  Cached 100.0% of DFT collocation blocks in 2.943 [GiB].

  Minimum eigenvalue in the overlap matrix is 4.6857595973E-07.
  Using Symmetric Orthogonalization.

  SCF Guess: Superposition of Atomic Densities via on-the-fly atomic UHF.

  ==> Iterations <==

                           Total Energy        Delta E     RMS |[F,P]|

   @DF-RKS iter SAD: -1187.19718420999607   -1.18720e+03   0.00000e+00 
   @DF-RKS iter   1: -1187.54491053021343   -3.47726e-01   3.37868e-03 DIIS
   @DF-RKS iter   2: -1187.55829797910837   -1.33874e-02   3.67740e-03 DIIS
   @DF-RKS iter   3: -1188.08415439335658   -5.25856e-01   7.89606e-04 DIIS
   @DF-RKS iter   4: -1188.10879467765517   -2.46403e-02   2.58558e-04 DIIS
   @DF-RKS iter   5: -1188.11211468741703   -3.32001e-03   7.20189e-05 DIIS
   @DF-RKS iter   6: -1188.11251062424481   -3.95937e-04   2.43151e-05 DIIS
   @DF-RKS iter   7: -1188.11257290501680   -6.22808e-05   1.01469e-05 DIIS
   @DF-RKS iter   8: -1188.11259032362022   -1.74186e-05   3.93967e-06 DIIS
   @DF-RKS iter   9: -1188.11259326829349   -2.94467e-06   2.25117e-06 DIIS
   @DF-RKS iter  10: -1188.11259365837691   -3.90083e-07   7.42002e-07 DIIS
   @DF-RKS iter  11: -1188.11259371384790   -5.54710e-08   3.23632e-07 DIIS
   @DF-RKS iter  12: -1188.11259372476707   -1.09192e-08   1.57238e-07 DIIS
   @DF-RKS iter  13: -1188.11259372768131   -2.91425e-09   5.78354e-08 DIIS
   @DF-RKS iter  14: -1188.11259372801533   -3.34012e-10   2.68653e-08 DIIS
   @DF-RKS iter  15: -1188.11259372809332   -7.79892e-11   1.18966e-08 DIIS
   @DF-RKS iter  16: -1188.11259372810741   -1.40972e-11   7.10047e-09 DIIS
  Energy and wave function converged.


  ==> Post-Iterations <==

    Orbital Energies [Eh]
    ---------------------

    Doubly Occupied:                                                      

       1A    -89.083713     2A    -24.874608     3A    -24.874281  
       4A    -19.306516     5A    -19.295325     6A    -14.544387  
       7A    -10.511742     8A    -10.460034     9A    -10.436602  
      10A    -10.412569    11A    -10.393885    12A    -10.361243  
      13A    -10.355054    14A    -10.355040    15A    -10.354447  
      16A    -10.346755    17A     -8.100911    18A     -6.051728  
      19A     -6.047094    20A     -6.041010    21A     -1.382789  
      22A     -1.326467    23A     -1.190634    24A     -1.176077  
      25A     -1.093527    26A     -0.999357    27A     -0.940544  
      28A     -0.903532    29A     -0.888983    30A     -0.868717  
      31A     -0.797923    32A     -0.767757    33A     -0.752809  
      34A     -0.742038    35A     -0.694516    36A     -0.679345  
      37A     -0.667070    38A     -0.646060    39A     -0.628028  
      40A     -0.591119    41A     -0.581114    42A     -0.566371  
      43A     -0.564854    44A     -0.561418    45A     -0.554079  
      46A     -0.550996    47A     -0.549077    48A     -0.534858  
      49A     -0.529985    50A     -0.517496    51A     -0.508199  
      52A     -0.503752    53A     -0.489347    54A     -0.484175  
      55A     -0.472988    56A     -0.441514    57A     -0.424942  
      58A     -0.396613    59A     -0.391163    60A     -0.369021  
      61A     -0.342622    62A     -0.319490  

    Virtual:                                                              

      63A     -0.048831    64A      0.009948    65A      0.034904  
      66A      0.048385    67A      0.056805    68A      0.061706  
      69A      0.062983    70A      0.075295    71A      0.079640  
      72A      0.088541    73A      0.091110    74A      0.099476  
      75A      0.104385    76A      0.112208    77A      0.113070  
      78A      0.115397    79A      0.120471    80A      0.130309  
      81A      0.133563    82A      0.136044    83A      0.142045  
      84A      0.143531    85A      0.153403    86A      0.159513  
      87A      0.164178    88A      0.172502    89A      0.174012  
      90A      0.178193    91A      0.186813    92A      0.188091  
      93A      0.193600    94A      0.197263    95A      0.201409  
      96A      0.207948    97A      0.213809    98A      0.220148  
      99A      0.224371   100A      0.227729   101A      0.234193  
     102A      0.237181   103A      0.240874   104A      0.245078  
     105A      0.247272   106A      0.250610   107A      0.251809  
     108A      0.255520   109A      0.262654   110A      0.267934  
     111A      0.273642   112A      0.279853   113A      0.284293  
     114A      0.288369   115A      0.297191   116A      0.299661  
     117A      0.306449   118A      0.310626   119A      0.316272  
     120A      0.317845   121A      0.321211   122A      0.329644  
     123A      0.334311   124A      0.346761   125A      0.350761  
     126A      0.362661   127A      0.367050   128A      0.374327  
     129A      0.381998   130A      0.384904   131A      0.386627  
     132A      0.391034   133A      0.396146   134A      0.399069  
     135A      0.409315   136A      0.414041   137A      0.421364  
     138A      0.431353   139A      0.443265   140A      0.444643  
     141A      0.456691   142A      0.466569   143A      0.477235  
     144A      0.486011   145A      0.499381   146A      0.510277  
     147A      0.527119   148A      0.532090   149A      0.540206  
     150A      0.546141   151A      0.566701   152A      0.574406  
     153A      0.589431   154A      0.597610   155A      0.602376  
     156A      0.637314   157A      0.656552   158A      0.669521  
     159A      0.683364   160A      0.686446   161A      0.722449  
     162A      0.735806   163A      0.742859   164A      0.752150  
     165A      0.756676   166A      0.769272   167A      0.785484  
     168A      0.797924   169A      0.811346   170A      0.820681  
     171A      0.825997   172A      0.846105   173A      0.864467  
     174A      0.874355   175A      0.880852   176A      0.894360  
     177A      0.895587   178A      0.912526   179A      0.929145  
     180A      0.933983   181A      0.964380   182A      0.971553  
     183A      0.980520   184A      0.988045   185A      0.994109  
     186A      1.023046   187A      1.046479   188A      1.056236  
     189A      1.073532   190A      1.082970   191A      1.087729  
     192A      1.097654   193A      1.111731   194A      1.149173  
     195A      1.158128   196A      1.171057   197A      1.197600  
     198A      1.202570   199A      1.213091   200A      1.213758  
     201A      1.225489   202A      1.229072   203A      1.270932  
     204A      1.284084   205A      1.296668   206A      1.318905  
     207A      1.321648   208A      1.334894   209A      1.338304  
     210A      1.378738   211A      1.402225   212A      1.407364  
     213A      1.410877   214A      1.417620   215A      1.424890  
     216A      1.448174   217A      1.458844   218A      1.461377  
     219A      1.465216   220A      1.475698   221A      1.500265  
     222A      1.511599   223A      1.525392   224A      1.531568  
     225A      1.551544   226A      1.592050   227A      1.619009  
     228A      1.648353   229A      1.662525   230A      1.668696  
     231A      1.706706   232A      1.748525   233A      1.749550  
     234A      1.759138   235A      1.760219   236A      1.764851  
     237A      1.774343   238A      1.781146   239A      1.787785  
     240A      1.819841   241A      1.837657   242A      1.861253  
     243A      1.873264   244A      1.895408   245A      1.902488  
     246A      1.907333   247A      1.918026   248A      1.944813  
     249A      1.962177   250A      1.965374   251A      1.970154  
     252A      2.004859   253A      2.036406   254A      2.047283  
     255A      2.055934   256A      2.058718   257A      2.081486  
     258A      2.088885   259A      2.097180   260A      2.110596  
     261A      2.144953   262A      2.151059   263A      2.166429  
     264A      2.197916   265A      2.204769   266A      2.212240  
     267A      2.244370   268A      2.252152   269A      2.259084  
     270A      2.266871   271A      2.301143   272A      2.308970  
     273A      2.312863   274A      2.335392   275A      2.350642  
     276A      2.366898   277A      2.379465   278A      2.401658  
     279A      2.463111   280A      2.465251   281A      2.510854  
     282A      2.516422   283A      2.569458   284A      2.624906  
     285A      2.655278   286A      2.671897   287A      2.704970  
     288A      2.719537   289A      2.734709   290A      2.768545  
     291A      2.770734   292A      2.821297   293A      2.830008  
     294A      2.846227   295A      2.896187   296A      2.945685  
     297A      2.964249   298A      3.028017   299A      3.122233  
     300A      3.152853   301A      3.209232   302A      3.232916  
     303A      3.336571   304A      3.376813   305A      3.462158  
     306A      3.486739   307A      4.030485   308A      4.277350  
     309A      4.307494   310A      4.328111   311A      4.361555  
     312A      4.372329   313A      4.409648   314A      4.468583  
     315A      4.487710   316A      4.519708   317A      4.580024  
     318A      4.777690   319A      4.834186   320A      5.116261  
     321A      5.695462   322A      7.142226  

    Final Occupation by Irrep:
              A 
    DOCC [    62 ]

  @DF-RKS Final Energy: -1188.11259372810741

   => Energetics <=

    Nuclear Repulsion Energy =           1177.0193794755700765
    One-Electron Energy =               -3968.0067877366400353
    Two-Electron Energy =                1692.3258736191646676
    DFT Exchange-Correlation Energy =     -89.4375062866413231
    Empirical Dispersion Energy =          -0.0135527995609193
    VV10 Nonlocal Energy =                  0.0000000000000000
    Total Energy =                      -1188.1125937281076403

Computation Completed


Properties will be evaluated at   0.000000,   0.000000,   0.000000 [a0]

Properties computed using the SCF density matrix

  Nuclear Dipole Moment: [e a0]
     X:    24.1188      Y:    -3.3075      Z:    -3.3499

  Electronic Dipole Moment: [e a0]
     X:   -21.1434      Y:     2.6159      Z:     3.0649

  Dipole Moment: [e a0]
     X:     2.9755      Y:    -0.6916      Z:    -0.2850     Total:     3.0680

  Dipole Moment: [D]
     X:     7.5628      Y:    -1.7580      Z:    -0.7245     Total:     7.7982


*** tstop() called on cpu-spot-dy-c5n2xlarge-1 at Mon Jun 21 23:42:02 2021
Module time:
	user time   =     573.24 seconds =       9.55 minutes
	system time =      10.41 seconds =       0.17 minutes
	total time  =         77 seconds =       1.28 minutes
Total time:
	user time   =     573.24 seconds =       9.55 minutes
	system time =      10.41 seconds =       0.17 minutes
	total time  =         77 seconds =       1.28 minutes

*** tstart() called on cpu-spot-dy-c5n2xlarge-1
*** at Mon Jun 21 23:42:02 2021


         ------------------------------------------------------------
                                   SCF GRAD                          
                          Rob Parrish, Justin Turney,                
                       Andy Simmonett, and Alex Sokolov              
         ------------------------------------------------------------

  ==> Geometry <==

    Molecular point group: c1
    Full point group: C1

    Geometry (in Angstrom), charge = 0, multiplicity = 1:

       Center              X                  Y                   Z               Mass       
    ------------   -----------------  -----------------  -----------------  -----------------
         N           -0.521354669058    -1.441885484353     0.616371299337    14.003074004430
         C           -1.840721669058    -1.389933484353     0.982525299337    12.000000000000
         C           -2.574966669058    -0.034745484353     0.713816299337    12.000000000000
         F           -3.653803669058    -0.302448484353    -0.099077700663    18.998403162730
         F           -3.048728669058     0.424333515647     1.922377299337    18.998403162730
         C           -1.742649669058     1.116809515647     0.051002299337    12.000000000000
         C           -0.322276669058     0.841738515647    -0.266104700663    12.000000000000
         C            0.476189330942     1.841615515647    -0.861849700663    12.000000000000
         C            1.820662330942     1.600791515647    -1.169391700663    12.000000000000
         C            2.414075330942     0.339566515647    -0.896388700663    12.000000000000
         C            1.612033330942    -0.658318484353    -0.291874700663    12.000000000000
         C            0.260637330942    -0.422708484353     0.021132299337    12.000000000000
         S            4.130605330942     0.017875515647    -1.253288700663    31.972071174400
         C            4.713032330942    -1.291132484353    -0.136793700663    12.000000000000
         O           -2.379982669058    -2.363916484353     1.487853299337    15.994914619570
         O           -2.262422669058     2.202354515647    -0.189443700663    15.994914619570
         H            2.399631330942     2.408260515647    -1.618146700663     1.007825032230
         H            0.019781330942     2.808683515647    -1.074718700663     1.007825032230
         H           -0.105856669058    -2.341143484353     0.817551299337     1.007825032230
         H            2.034091330942    -1.638385484353    -0.078241700663     1.007825032230
         H            4.691580330942    -0.923275484353     0.893638299337     1.007825032230
         H            4.102660330942    -2.190986484353    -0.245721700663     1.007825032230
         H            5.746971330942    -1.532809484353    -0.402459700663     1.007825032230

  Nuclear repulsion = 1177.019379475570076

  ==> Basis Set <==

  Basis Set: 6-31+G*
    Blend: 6-31+G*
    Number of shells: 144
    Number of basis function: 322
    Number of Cartesian functions: 322
    Spherical Harmonics?: false
    Max angular momentum: 2

  ==> DFJKGrad: Density-Fitted SCF Gradients <==

    Gradient:                    1
    J tasked:                  Yes
    K tasked:                  Yes
    wK tasked:                 Yes
    Omega:               2.000E-01
    OpenMP threads:              8
    Integrals threads:           8
    Memory [MiB]:            11444
    Schwarz Cutoff:          0E+00
    Fitting Condition:       1E-10

   => Auxiliary Basis Set <=

  Basis Set: (6-31+G* AUX)
    Blend: HEAVY-AUG-CC-PVDZ-JKFIT
    Number of shells: 523
    Number of basis function: 1840
    Number of Cartesian functions: 1840
    Spherical Harmonics?: false
    Max angular momentum: 3

  ==> DFT Potential <==

   => Composite Functional: WB97X-D <= 

    wB97X-D Hyb-GGA Exchange-Correlation Functional

    J.-D. Chai and M. Head-Gordon, Phys. Chem. Chem. Phys. 10, 6615 (2008)

    Deriv               =              1
    GGA                 =           TRUE
    Meta                =          FALSE

    Exchange Hybrid     =           TRUE
    MP2 Hybrid          =          FALSE

   => Exchange-Correlation Functionals <=

    1.0000   wB97D range-separated functional

   => Exact (HF) Exchange <=

    0.7780            HF,LR [omega = 0.2000]
    0.2220               HF 

   => Molecular Quadrature <=

    Radial Scheme          =       TREUTLER
    Pruning Scheme         =           FLAT
    Nuclear Scheme         =       TREUTLER

    BS radius alpha        =              1
    Pruning alpha          =              1
    Radial Points          =             75
    Spherical Points       =            302
    Total Points           =         520857
    Total Blocks           =           3864
    Max Points             =            256
    Max Functions          =            284


  -Total Gradient:
     Atom            X                  Y                   Z
    ------   -----------------  -----------------  -----------------
       1       -0.005681244191    -0.012038778520     0.005869317761
       2        0.004122406097     0.012504324353    -0.005522036050
       3        0.013211459409    -0.001257480312    -0.003115339731
       4       -0.014386878689    -0.003535697673    -0.011564167872
       5       -0.005899023969     0.006391083742     0.016265037185
       6       -0.001107616816    -0.021940998649     0.007890374459
       7       -0.003042418568     0.008359645286    -0.002113307056
       8       -0.008036504046     0.012865023082    -0.000459716450
       9        0.001849571193     0.001184762102     0.000810666964
      10        0.014105749255     0.010594133661    -0.018651750611
      11        0.004950842889    -0.005383468501     0.002078123262
      12        0.001955580386    -0.006549965152     0.001702417061
      13       -0.001905742882    -0.013800054911     0.012981506543
      14        0.012476482007    -0.001880834598    -0.005861416262
      15       -0.001740407057    -0.021810983511     0.008254984065
      16       -0.004195801045     0.028367072888    -0.008979019891
      17       -0.000802978604     0.004061580875    -0.001543323201
      18       -0.002109160980     0.003242197037    -0.000947153959
      19       -0.004236505929     0.000729645629     0.001079268478
      20        0.001472641990    -0.001747610660    -0.000268718908
      21        0.000590396126     0.003583596199    -0.000152516564
      22       -0.002913374763     0.001634271602    -0.001964639724
      23        0.002517275069    -0.003772821834     0.003835221637


*** tstop() called on cpu-spot-dy-c5n2xlarge-1 at Mon Jun 21 23:42:25 2021
Module time:
	user time   =     147.84 seconds =       2.46 minutes
	system time =       3.61 seconds =       0.06 minutes
	total time  =         23 seconds =       0.38 minutes
Total time:
	user time   =     721.08 seconds =      12.02 minutes
	system time =      14.02 seconds =       0.23 minutes
	total time  =        100 seconds =       1.67 minutes

			-----------------------------------------
			 OPTKING 2.0: for geometry optimizations 
			  - R.A. King,  Bethel University        
			-----------------------------------------
	At level 1: Red. Int., RFO, no backsteps, dynamic trust

	Internal coordinates to be generated automatically.
	Detected frag 1 with atoms:  1 2 3 4 5 6 7 8 9 10 11 12 13 14 15 16 17 18 19 20
	 21 22 23
	---Fragment 1 Bond Connectivity---
	 1 : 2 12 19
	 2 : 1 3 15
	 3 : 2 4 5 6
	 4 : 3
	 5 : 3
	 6 : 3 7 16
	 7 : 6 8 12
	 8 : 7 9 18
	 9 : 8 10 17
	 10 : 9 11 13
	 11 : 10 12 20
	 12 : 1 7 11
	 13 : 10 14
	 14 : 13 21 22 23
	 15 : 2
	 16 : 6
	 17 : 9
	 18 : 8
	 19 : 1
	 20 : 11
	 21 : 14
	 22 : 14
	 23 : 14

	Assuming in current code that numbering for constraints corresponds to unified fragment.
	Frozen dihedral atom list: 
	    11    10    13    14
	     9    10    13    14
	    21    14    13    10
	---Fragment 1 Geometry and Gradient---
	 N          -0.9852175387       -2.7247686697        1.1647729473
	 C          -3.4784598277       -2.6265936180        1.8567037271
	 C          -4.8659817867       -0.0656594495        1.3489173096
	 F          -6.9046882507       -0.5715448025       -0.1872297194
	 F          -5.7612622154        0.8018741304        3.6327666055
	 C          -3.2931306071        2.1104641189        0.0963803775
	 C          -0.6090146411        1.5906552638       -0.5028650050
	 C           0.8998674193        3.4801489530       -1.6286598956
	 C           3.4405531724        3.0250575485       -2.2098300476
	 C           4.5619412217        0.6416877159       -1.6939291462
	 C           3.0463015006       -1.2440416388       -0.5515632472
	 C           0.4925331736       -0.7988032663        0.0399342581
	 S           7.8057128078        0.0337798289       -2.3683724004
	 C           8.9063403259       -2.4398867871       -0.2585026299
	 O          -4.4975154279       -4.4671547389        2.8116352506
	 O          -4.2753592245        4.1618468657       -0.3579967104
	 H           4.5346460175        4.5509528133       -3.0578540951
	 H           0.0373812979        5.3076426177       -2.0309240062
	 H          -0.2000401131       -4.4241200058        1.5449480493
	 H           3.8438755296       -3.0960998534       -0.1478553858
	 H           8.8658019211       -1.7447378038        1.6887316410
	 H           7.7529044113       -4.1403644000       -0.4643467173
	 H          10.8602018663       -2.8965901279       -0.7605386108
	            -0.0056812442       -0.0120387785        0.0058693178
	             0.0041224061        0.0125043244       -0.0055220361
	             0.0132114594       -0.0012574803       -0.0031153397
	            -0.0143868787       -0.0035356977       -0.0115641679
	            -0.0058990240        0.0063910837        0.0162650372
	            -0.0011076168       -0.0219409986        0.0078903745
	            -0.0030424186        0.0083596453       -0.0021133071
	            -0.0080365040        0.0128650231       -0.0004597164
	             0.0018495712        0.0011847621        0.0008106670
	             0.0141057493        0.0105941337       -0.0186517506
	             0.0049508429       -0.0053834685        0.0020781233
	             0.0019555804       -0.0065499652        0.0017024171
	            -0.0019057429       -0.0138000549        0.0129815065
	             0.0124764820       -0.0018808346       -0.0058614163
	            -0.0017404071       -0.0218109835        0.0082549841
	            -0.0041958010        0.0283670729       -0.0089790199
	            -0.0008029786        0.0040615809       -0.0015433232
	            -0.0021091610        0.0032421970       -0.0009471540
	            -0.0042365059        0.0007296456        0.0010792685
	             0.0014726420       -0.0017476107       -0.0002687189
	             0.0005903961        0.0035835962       -0.0001525166
	            -0.0029133748        0.0016342716       -0.0019646397
	             0.0025172751       -0.0037728218        0.0038352216

	Previous optimization step data not found.  Starting new optimization.

	---Fragment 1 Intrafragment Coordinates---
	 - Coordinate -           - BOHR/RAD -       - ANG/DEG -
	 R(1,2)           =         2.589337	       1.370218
	 R(1,12)          =         2.675510	       1.415819
	 R(1,19)          =         1.910192	       1.010830
	 R(2,3)           =         2.956594	       1.564562
	 R(2,15)          =         2.310419	       1.222621
	 R(3,4)           =         2.602305	       1.377081
	 R(3,5)           =         2.601943	       1.376889
	 R(3,6)           =         2.962807	       1.567850
	 R(6,7)           =         2.798888	       1.481108
	 R(6,16)          =         2.319354	       1.227349
	 R(7,8)           =         2.667269	       1.411458
	 R(7,12)          =         2.686550	       1.421661
	 R(8,9)           =         2.645742	       1.400066
	 R(8,18)          =         2.060445	       1.090340
	 R(9,10)          =         2.684049	       1.420337
	 R(9,17)          =         2.060228	       1.090226
	 R(10,11)         =         2.675470	       1.415798
	 R(10,13)         =         3.368454	       1.782509
	 R(11,12)         =         2.658917	       1.407038
	 R(11,20)         =         2.056508	       1.088257
	 R(13,14)         =         3.432486	       1.816393
	 R(14,21)         =         2.067993	       1.094335
	 R(14,22)         =         2.065045	       1.092775
	 R(14,23)         =         2.068379	       1.094539
	 B(1,2,3)         =         2.025090	     116.029095
	 B(1,2,15)        =         2.100113	     120.327625
	 B(1,12,7)        =         2.092921	     119.915520
	 B(1,12,11)       =         2.098406	     120.229786
	 B(2,1,12)        =         2.235569	     128.088664
	 B(2,1,19)        =         1.956637	     112.107039
	 B(2,3,4)         =         1.876178	     107.497089
	 B(2,3,5)         =         1.874991	     107.429053
	 B(2,3,6)         =         2.048412	     117.365374
	 B(3,2,15)        =         2.157982	     123.643255
	 B(3,6,7)         =         2.052400	     117.593852
	 B(3,6,16)        =         2.103221	     120.505673
	 B(4,3,5)         =         1.889558	     108.263713
	 B(4,3,6)         =         1.885066	     108.006328
	 B(5,3,6)         =         1.884773	     107.989522
	 B(6,7,8)         =         2.095907	     120.086639
	 B(6,7,12)        =         2.111960	     121.006408
	 B(7,6,16)        =         2.127564	     121.900440
	 B(7,8,9)         =         2.110759	     120.937558
	 B(7,8,18)        =         2.064526	     118.288628
	 B(7,12,11)       =         2.091852	     119.854286
	 B(8,7,12)        =         2.075318	     118.906940
	 B(8,9,10)        =         2.107989	     120.778863
	 B(8,9,17)        =         2.063474	     118.228337
	 B(9,8,18)        =         2.107898	     120.773647
	 B(9,10,11)       =         2.061508	     118.115727
	 B(9,10,13)       =         2.122456	     121.607774
	 B(10,9,17)       =         2.111708	     120.991942
	 B(10,11,12)      =         2.118882	     121.402971
	 B(10,11,20)      =         2.093087	     119.925063
	 B(10,13,14)      =         1.892062	     108.407159
	 B(11,10,13)      =         2.098809	     120.252874
	 B(12,1,19)       =         2.090978	     119.804243
	 B(12,11,20)      =         2.071025	     118.660974
	 B(13,14,21)      =         1.907364	     109.283895
	 B(13,14,22)      =         1.931641	     110.674889
	 B(13,14,23)      =         1.888965	     108.229705
	 B(21,14,22)      =         1.938756	     111.082563
	 B(21,14,23)      =         1.897883	     108.740685
	 B(22,14,23)      =         1.898228	     108.760426
	 D(1,2,3,4)       =         2.133656	     122.249499
	 D(1,2,3,5)       =        -2.119374	    -121.431188
	 D(1,2,3,6)       =         0.006470	       0.370679
	 D(1,12,7,6)      =         0.002680	       0.153581
	 D(1,12,7,8)      =        -3.139618	    -179.886874
	 D(1,12,11,10)    =         3.133327	     179.526433
	 D(1,12,11,20)    =         0.012806	       0.733733
	 D(2,1,12,7)      =        -0.001325	      -0.075902
	 D(2,1,12,11)     =        -3.138856	    -179.843200
	 D(2,3,6,7)       =        -0.005292	      -0.303208
	 D(2,3,6,16)      =         3.137480	     179.764358
	 D(3,2,1,12)      =        -0.003402	      -0.194904
	 D(3,2,1,19)      =         3.139689	     179.890919
	 D(3,6,7,8)       =        -3.140097	    -179.914299
	 D(3,6,7,12)      =         0.000781	       0.044772
	 D(4,3,2,15)      =        -1.008945	     -57.808300
	 D(4,3,6,7)       =        -2.127880	    -121.918551
	 D(4,3,6,16)      =         1.014892	      58.149015
	 D(5,3,2,15)      =         1.021210	      58.511013
	 D(5,3,6,7)       =         2.115486	     121.208392
	 D(5,3,6,16)      =        -1.024928	     -58.724041
	 D(6,3,2,15)      =        -3.136132	    -179.687120
	 D(6,7,8,9)       =        -3.141358	    -179.986534
	 D(6,7,8,18)      =         0.002809	       0.160939
	 D(6,7,12,11)     =         3.140227	     179.921759
	 D(7,8,9,10)      =         0.006467	       0.370545
	 D(7,8,9,17)      =        -3.129300	    -179.295694
	 D(7,12,1,19)     =         3.138669	     179.832464
	 D(7,12,11,10)    =        -0.004206	      -0.241008
	 D(7,12,11,20)    =        -3.124728	    -179.033707
	 D(8,7,6,16)      =         0.000299	       0.017130
	 D(8,7,12,11)     =        -0.002072	      -0.118696
	 D(8,9,10,11)     =        -0.012405	      -0.710777
	 D(8,9,10,13)     =        -3.123203	    -178.946356
	 D(9,8,7,12)      =         0.000934	       0.053540
	 D(9,10,11,12)    =         0.011317	       0.648430
	 D(9,10,11,20)    =         3.131576	     179.426091
	*D(9,10,13,14)    =         2.688518	     154.040730
	 D(10,9,8,18)     =        -3.137763	    -179.780597
	*D(10,13,14,21)   =        -1.142018	     -65.432795
	 D(10,13,14,22)   =         0.998456	      57.207299
	 D(10,13,14,23)   =         3.076992	     176.298629
	 D(11,10,9,17)    =         3.123200	     178.946184
	*D(11,10,13,14)   =        -0.421631	     -24.157688
	 D(11,12,1,19)    =         0.001137	       0.065167
	 D(12,1,2,15)     =         3.139164	     179.860843
	 D(12,7,6,16)     =         3.141177	     179.976201
	 D(12,7,8,18)     =        -3.138084	    -179.798987
	 D(12,11,10,13)   =         3.122548	     178.908844
	 D(13,10,9,17)    =         0.012402	       0.710604
	 D(13,10,11,20)   =        -0.040378	      -2.313495
	 D(15,2,1,19)     =        -0.000931	      -0.053335
	 D(17,9,8,18)     =         0.009655	       0.553164

	Current energy   :     -1188.1125937281

	Generating empirical Hessian (Schlegel '84) for each fragment.
	Taking RFO optimization step.
	Going to follow RFO solution 1.
	Using RFO vector 1.
	Norm of target step-size    0.23600
	Projected energy change by RFO approximation:        -0.0149417665

	Back-transformation to cartesian coordinates...
	Successfully converged to displaced geometry.

	Back-transformation to cartesian coordinates to adjust frozen coordinates...
	Successfully converged to displaced geometry.

	--- Internal Coordinate Step in ANG or DEG, aJ/ANG or AJ/DEG ---
	 ---------------------------------------------------------------------------
	   Coordinate                Previous        Force       Change         New 
	   ----------                --------       ------       ------       ------
	    1 R(1,2)          =      1.370218    -0.009124    -0.001064     1.369154
	    2 R(1,12)         =      1.415819    -0.130584    -0.019155     1.396664
	    3 R(1,19)         =      1.010830     0.018113     0.002450     1.013280
	    4 R(2,3)          =      1.564562    -0.096573    -0.021217     1.543345
	    5 R(2,15)         =      1.222621    -0.177794    -0.011911     1.210710
	    6 R(3,4)          =      1.377081    -0.155037    -0.019418     1.357663
	    7 R(3,5)          =      1.376889    -0.152148    -0.019042     1.357847
	    8 R(3,6)          =      1.567850    -0.090109    -0.020120     1.547729
	    9 R(6,7)          =      1.481108    -0.074456    -0.013440     1.467668
	   10 R(6,16)         =      1.227349    -0.236031    -0.016155     1.211194
	   11 R(7,8)          =      1.411458    -0.094667    -0.013514     1.397944
	   12 R(7,12)         =      1.421661    -0.129448    -0.019593     1.402068
	   13 R(8,9)          =      1.400066    -0.144742    -0.019726     1.380340
	   14 R(8,18)         =      1.090340    -0.032716    -0.005770     1.084570
	   15 R(9,10)         =      1.420337    -0.141418    -0.020545     1.399792
	   16 R(9,17)         =      1.090226    -0.026275    -0.004633     1.085593
	   17 R(10,11)        =      1.415798    -0.121586    -0.017327     1.398471
	   18 R(10,13)        =      1.782509    -0.089739    -0.019747     1.762762
	   19 R(11,12)        =      1.407038    -0.130411    -0.018109     1.388929
	   20 R(11,20)        =      1.088257    -0.017023    -0.002983     1.085274
	   21 R(13,14)        =      1.816393    -0.014544    -0.003524     1.812869
	   22 R(14,21)        =      1.094335    -0.008853    -0.001581     1.092754
	   23 R(14,22)        =      1.092775    -0.004028    -0.000716     1.092059
	   24 R(14,23)        =      1.094539    -0.018330    -0.003276     1.091263
	   25 B(1,2,3)        =    116.029095    -0.000079    -0.104963   115.924132
	   26 B(1,2,15)       =    120.327625     0.000833     2.314808   122.642433
	   27 B(1,12,7)       =    119.915520     0.000250     0.498099   120.413619
	   28 B(1,12,11)      =    120.229786    -0.000386    -0.974897   119.254888
	   29 B(2,1,12)       =    128.088664    -0.000180    -0.625801   127.462863
	   30 B(2,1,19)       =    112.107039     0.000374     1.534630   113.641669
	   31 B(2,3,4)        =    107.497089    -0.000030    -0.119992   107.377097
	   32 B(2,3,5)        =    107.429053    -0.000026    -0.144845   107.284208
	   33 B(2,3,6)        =    117.365374     0.000059     0.439987   117.805361
	   34 B(3,2,15)       =    123.643255    -0.000754    -2.210003   121.433252
	   35 B(3,6,7)        =    117.593852    -0.000122    -0.279058   117.314794
	   36 B(3,6,16)       =    120.505673    -0.000741    -2.134460   118.371212
	   37 B(4,3,5)        =    108.263713    -0.000025    -0.269034   107.994679
	   38 B(4,3,6)        =    108.006328     0.000011     0.015961   108.022289
	   39 B(5,3,6)        =    107.989522     0.000005     0.020876   108.010398
	   40 B(6,7,8)        =    120.086639    -0.000013     0.068980   120.155619
	   41 B(6,7,12)       =    121.006408     0.000073     0.070863   121.077271
	   42 B(7,6,16)       =    121.900440     0.000862     2.413554   124.313993
	   43 B(7,8,9)        =    120.937558     0.000098     0.302558   121.240116
	   44 B(7,8,18)       =    118.288628    -0.000012    -0.021567   118.267061
	   45 B(7,12,11)      =    119.854286     0.000136     0.476621   120.330907
	   46 B(8,7,12)       =    118.906940    -0.000059    -0.140436   118.766505
	   47 B(8,9,10)       =    120.778863    -0.000303    -0.945919   119.832944
	   48 B(8,9,17)       =    118.228337     0.000392     1.514600   119.742936
	   49 B(9,8,18)       =    120.773647    -0.000086    -0.287728   120.485919
	   50 B(9,10,11)      =    118.115727     0.000501     1.431484   119.547211
	   51 B(9,10,13)      =    121.607774    -0.001327    -3.768708   117.839066
	   52 B(10,9,17)      =    120.991942    -0.000089    -0.567844   120.424098
	   53 B(10,11,12)     =    121.402971    -0.000374    -1.134312   120.268658
	   54 B(10,11,20)     =    119.925063     0.000252     0.845269   120.770332
	   55 B(10,13,14)     =    108.407159    -0.002060    -5.822141   102.585018
	   56 B(11,10,13)     =    120.252874     0.000825     2.336591   122.589465
	   57 B(12,1,19)      =    119.804243    -0.000194    -0.908930   118.895313
	   58 B(12,11,20)     =    118.660974     0.000122     0.292523   118.953497
	   59 B(13,14,21)     =    109.283895     0.000425     2.062318   111.346213
	   60 B(13,14,22)     =    110.674889     0.000457     2.158316   112.833205
	   61 B(13,14,23)     =    108.229705    -0.000800    -3.822749   104.406955
	   62 B(21,14,22)     =    111.082563    -0.000226    -0.267990   110.814573
	   63 B(21,14,23)     =    108.740685     0.000147     0.131131   108.871815
	   64 B(22,14,23)     =    108.760426    -0.000028    -0.498770   108.261657
	   65 D(1,2,3,4)      =    122.249499     0.000007     0.316298   122.565797
	   66 D(1,2,3,5)      =   -121.431188    -0.000005    -0.129410  -121.560599
	   67 D(1,2,3,6)      =      0.370679     0.000000     0.086039     0.456718
	   68 D(1,12,7,6)     =      0.153581     0.000001     0.189306     0.342888
	   69 D(1,12,7,8)     =   -179.886874    -0.000001    -0.052880  -179.939754
	   70 D(1,12,11,10)   =    179.526433     0.000001     0.082809   179.609241
	   71 D(1,12,11,20)   =      0.733733    -0.000002    -0.135161     0.598573
	   72 D(2,1,12,7)     =     -0.075902    -0.000001    -0.078337    -0.154239
	   73 D(2,1,12,11)    =   -179.843200    -0.000001    -0.033650  -179.876850
	   74 D(2,3,6,7)      =     -0.303208     0.000000     0.014910    -0.288298
	   75 D(2,3,6,16)     =    179.764358    -0.000000    -0.063407   179.700952
	   76 D(3,2,1,12)     =     -0.194904    -0.000000    -0.059603    -0.254506
	   77 D(3,2,1,19)     =    179.890919    -0.000000     0.000970   179.891888
	   78 D(3,6,7,8)      =   -179.914299     0.000001     0.092287  -179.822012
	   79 D(3,6,7,12)     =      0.044772    -0.000001    -0.153323    -0.108551
	   80 D(4,3,2,15)     =    -57.808300     0.000007     0.222154   -57.586146
	   81 D(4,3,6,7)      =   -121.918551    -0.000002    -0.148591  -122.067142
	   82 D(4,3,6,16)     =     58.149015    -0.000003    -0.226908    57.922108
	   83 D(5,3,2,15)     =     58.511013    -0.000006    -0.223554    58.287459
	   84 D(5,3,6,7)      =    121.208392     0.000003     0.148477   121.356869
	   85 D(5,3,6,16)     =    -58.724041     0.000002     0.070160   -58.653881
	   86 D(6,3,2,15)     =   -179.687120    -0.000000    -0.008104  -179.695224
	   87 D(6,7,8,9)      =   -179.986534    -0.000005    -0.581306  -180.567839
	   88 D(6,7,8,18)     =      0.160939     0.000002     0.222744     0.383684
	   89 D(6,7,12,11)    =    179.921759     0.000001     0.140740   180.062499
	   90 D(7,8,9,10)     =      0.370545     0.000007     0.750965     1.121510
	   91 D(7,8,9,17)     =   -179.295694     0.000004     0.469427  -178.826266
	   92 D(7,12,1,19)    =    179.832464    -0.000001    -0.139882   179.692583
	   93 D(7,12,11,10)   =     -0.241008     0.000001     0.127404    -0.113604
	   94 D(7,12,11,20)   =   -179.033707    -0.000002    -0.090566  -179.124273
	   95 D(8,7,6,16)     =      0.017130     0.000001     0.172310     0.189440
	   96 D(8,7,12,11)    =     -0.118696    -0.000001    -0.101446    -0.220142
	   97 D(8,9,10,11)    =     -0.710777    -0.000008    -0.728392    -1.439169
	   98 D(8,9,10,13)    =   -178.946356    -0.000010    -0.747987  -179.694344
	   99 D(9,8,7,12)     =      0.053540    -0.000003    -0.341416    -0.287876
	  100 D(9,10,11,12)   =      0.648430     0.000004     0.293804     0.942234
	  101 D(9,10,11,20)   =    179.426091     0.000007     0.508632   179.934722
	  102 *D(9,10,13,14)  =    154.040730    -0.000000    -0.000000   154.040730
	  103 D(10,9,8,18)    =   -179.780597    -0.000001    -0.070393  -179.850990
	  104 *D(10,13,14,21) =    -65.432795    -0.000000    -0.000000   -65.432795
	  105 D(10,13,14,22)  =     57.207299     0.000069     2.705378    59.912678
	  106 D(10,13,14,23)  =    176.298629     0.000010     0.949490   177.248119
	  107 D(11,10,9,17)   =    178.946184    -0.000004    -0.437937   178.508247
	  108 *D(11,10,13,14) =    -24.157688     0.000000     0.000000   -24.157688
	  109 D(11,12,1,19)   =      0.065167    -0.000001    -0.095195    -0.030028
	  110 D(12,1,2,15)    =    179.860843     0.000001     0.038613   179.899456
	  111 D(12,7,6,16)    =    179.976201    -0.000001    -0.073300   179.902901
	  112 D(12,7,8,18)    =   -179.798987     0.000004     0.462634  -179.336353
	  113 D(12,11,10,13)  =    178.908844    -0.000003     0.202157   179.111001
	  114 D(13,10,9,17)   =      0.710604    -0.000006    -0.457533     0.253072
	  115 D(13,10,11,20)  =     -2.313495    -0.000000     0.416985    -1.896511
	  116 D(15,2,1,19)    =     -0.053335     0.000001     0.099186     0.045851
	  117 D(17,9,8,18)    =      0.553164    -0.000004    -0.351930     0.201234
	 ---------------------------------------------------------------------------
	Successfully symmetrized geometry.

  ==> Convergence Check <==

  Measures of convergence in internal coordinates in au.
  Criteria marked as inactive (o), active & met (*), and active & unmet ( ).
  --------------------------------------------------------------------------------------------- ~
   Step     Total Energy     Delta E     MAX Force     RMS Force      MAX Disp      RMS Disp    ~
  --------------------------------------------------------------------------------------------- ~
    Convergence Criteria             o    2.50e-03 *    1.70e-03 *    1.00e-02 *    6.70e-03 *  ~
  --------------------------------------------------------------------------------------------- ~
      1   -1188.11259373   -1.19e+03 o    2.86e-02      7.28e-03      1.02e-01      2.18e-02    ~
  ---------------------------------------------------------------------------------------------

	Writing optimization data to binary file.
	Structure for next step:
	Cartesian Geometry (in Angstrom)
	    N    -0.4236311729  -1.4690137917   0.6515321804
	    C    -1.7252082999  -1.4411375514   1.0754458769
	    C    -2.4817360340  -0.1158731016   0.8446769966
	    F    -3.5780056487  -0.3998747789   0.0958212862
	    F    -2.9047650548   0.3236950292   2.0577614504
	    C    -1.7180745677   1.0409436353   0.1561551112
	    C    -0.3218178615   0.7945702864  -0.2230763669
	    C     0.4247515289   1.7995585929  -0.8450741703
	    C     1.7428676200   1.5960503289  -1.2007322667
	    C     2.3457671519   0.3560171662  -0.9593854338
	    C     1.6133277251  -0.6563648688  -0.3314244736
	    C     0.2905498439  -0.4404432014   0.0329381162
	    S     4.0335944632   0.1563649912  -1.4270465021
	    C     4.6051929884  -1.1422371834  -0.2985948644
	    O    -2.2606627131  -2.3902247859   1.6030254519
	    O    -2.3036804885   2.0837879268  -0.0349818620
	    H     2.3055934138   2.3997848175  -1.6653432700
	    H    -0.0536135232   2.7553299862  -1.0293574652
	    H     0.0401554175  -2.3537801313   0.8213182423
	    H     2.0607191524  -1.6255476453  -0.1356022908
	    H     4.5923615717  -0.8011180668   0.7394724495
	    H     4.0468277943  -2.0743965035  -0.4076806003
	    H     5.6386742422  -1.3257512791  -0.5970817064
			--------------------------
			 OPTKING Finished Execution 
			--------------------------

    Structure for next step:
    Molecular point group: c1
    Full point group: C1

    Geometry (in Angstrom), charge = 0, multiplicity = 1:

    N           -0.435752178194    -1.454709153695     0.625969114602
    C           -1.737329310250    -1.426832913255     1.049882812728
    C           -2.493857047330    -0.101568458247     0.819113931604
    F           -3.590126666376    -0.385570136653     0.070258218181
    F           -2.916886069817     0.337999674302     2.032198390115
    C           -1.730195578028     1.055248283202     0.130592043435
    C           -0.333938866331     0.808874933314    -0.248639436105
    C            0.412630526938     1.813863243758    -0.870637242020
    C            1.730746623229     1.610354979023    -1.226295339778
    C            2.333646157526     0.370321811443    -0.984948505894
    C            1.601206727855    -0.642060227600    -0.356987543259
    C            0.278428841478    -0.426138559321     0.007375048000
    S            4.021473475405     0.170669635648    -1.452609576061
    C            4.593072002866    -1.127932544046    -0.324157933903
    O           -2.272783725579    -2.375920151479     1.577462389828
    O           -2.315801501192     2.098092578788    -0.060544930458
    H            2.293472419276     2.414089470701    -1.690906344934
    H           -0.065734527048     2.769634640798    -1.054920537621
    H            0.028034414039    -2.339475496756     0.795755177156
    H            2.048598156881    -1.611243007864    -0.161165359677
    H            4.580240586126    -0.786813426119     0.713909384067
    H            4.034706806581    -2.060091867868    -0.433243670216
    H            5.626553260750    -1.311446640452    -0.622644777119

gradient() will perform analytic gradient computation.

*** tstart() called on cpu-spot-dy-c5n2xlarge-1
*** at Mon Jun 21 23:42:26 2021

   => Loading Basis Set <=

    Name: 6-31+G*
    Role: ORBITAL
    Keyword: BASIS
    atoms 1             entry N          line   138 file /fsx/users/francis/anaconda3/envs/poltype-dev/share/psi4/basis/6-31pgs.gbs 
    atoms 2-3, 6-12, 14 entry C          line   119 file /fsx/users/francis/anaconda3/envs/poltype-dev/share/psi4/basis/6-31pgs.gbs 
    atoms 4-5           entry F          line   176 file /fsx/users/francis/anaconda3/envs/poltype-dev/share/psi4/basis/6-31pgs.gbs 
    atoms 13            entry S          line   344 file /fsx/users/francis/anaconda3/envs/poltype-dev/share/psi4/basis/6-31pgs.gbs 
    atoms 15-16         entry O          line   157 file /fsx/users/francis/anaconda3/envs/poltype-dev/share/psi4/basis/6-31pgs.gbs 
    atoms 17-23         entry H          line    46 file /fsx/users/francis/anaconda3/envs/poltype-dev/share/psi4/basis/6-31pgs.gbs 


         ---------------------------------------------------------
                                   SCF
               by Justin Turney, Rob Parrish, Andy Simmonett
                          and Daniel G. A. Smith
                              RKS Reference
                        8 Threads,  15258 MiB Core
         ---------------------------------------------------------

  ==> Geometry <==

    Molecular point group: c1
    Full point group: C1

    Geometry (in Angstrom), charge = 0, multiplicity = 1:

       Center              X                  Y                   Z               Mass       
    ------------   -----------------  -----------------  -----------------  -----------------
         N           -0.435752178194    -1.454709153695     0.625969114602    14.003074004430
         C           -1.737329310250    -1.426832913255     1.049882812728    12.000000000000
         C           -2.493857047330    -0.101568458247     0.819113931604    12.000000000000
         F           -3.590126666376    -0.385570136653     0.070258218181    18.998403162730
         F           -2.916886069817     0.337999674302     2.032198390115    18.998403162730
         C           -1.730195578028     1.055248283202     0.130592043435    12.000000000000
         C           -0.333938866331     0.808874933314    -0.248639436105    12.000000000000
         C            0.412630526938     1.813863243758    -0.870637242020    12.000000000000
         C            1.730746623229     1.610354979023    -1.226295339778    12.000000000000
         C            2.333646157526     0.370321811443    -0.984948505894    12.000000000000
         C            1.601206727855    -0.642060227600    -0.356987543259    12.000000000000
         C            0.278428841478    -0.426138559321     0.007375048000    12.000000000000
         S            4.021473475405     0.170669635648    -1.452609576061    31.972071174400
         C            4.593072002866    -1.127932544046    -0.324157933903    12.000000000000
         O           -2.272783725579    -2.375920151479     1.577462389828    15.994914619570
         O           -2.315801501192     2.098092578788    -0.060544930458    15.994914619570
         H            2.293472419276     2.414089470701    -1.690906344934     1.007825032230
         H           -0.065734527048     2.769634640798    -1.054920537621     1.007825032230
         H            0.028034414039    -2.339475496756     0.795755177156     1.007825032230
         H            2.048598156881    -1.611243007864    -0.161165359677     1.007825032230
         H            4.580240586126    -0.786813426119     0.713909384067     1.007825032230
         H            4.034706806581    -2.060091867868    -0.433243670216     1.007825032230
         H            5.626553260750    -1.311446640452    -0.622644777119     1.007825032230

  Running in c1 symmetry.

  Rotational constants: A =      0.03598  B =      0.00878  C =      0.00739 [cm^-1]
  Rotational constants: A =   1078.64371  B =    263.09980  C =    221.42548 [MHz]
  Nuclear repulsion = 1192.570621147606062

  Charge       = 0
  Multiplicity = 1
  Electrons    = 124
  Nalpha       = 62
  Nbeta        = 62

  ==> Algorithm <==

  SCF Algorithm Type is DF.
  DIIS enabled.
  MOM disabled.
  Fractional occupation disabled.
  Guess Type is READ.
  Energy threshold   = 1.00e-08
  Density threshold  = 1.00e-08
  Integral threshold = 0.00e+00

  ==> Primary Basis <==

  Basis Set: 6-31+G*
    Blend: 6-31+G*
    Number of shells: 144
    Number of basis function: 322
    Number of Cartesian functions: 322
    Spherical Harmonics?: false
    Max angular momentum: 2

  ==> DFT Potential <==

   => Composite Functional: WB97X-D <= 

    wB97X-D Hyb-GGA Exchange-Correlation Functional

    J.-D. Chai and M. Head-Gordon, Phys. Chem. Chem. Phys. 10, 6615 (2008)

    Deriv               =              1
    GGA                 =           TRUE
    Meta                =          FALSE

    Exchange Hybrid     =           TRUE
    MP2 Hybrid          =          FALSE

   => Exchange-Correlation Functionals <=

    1.0000   wB97D range-separated functional

   => Exact (HF) Exchange <=

    0.7780            HF,LR [omega = 0.2000]
    0.2220               HF 

   => Molecular Quadrature <=

    Radial Scheme          =       TREUTLER
    Pruning Scheme         =           FLAT
    Nuclear Scheme         =       TREUTLER

    BS radius alpha        =              1
    Pruning alpha          =              1
    Radial Points          =             75
    Spherical Points       =            302
    Total Points           =         520853
    Total Blocks           =           3858
    Max Points             =            256
    Max Functions          =            287

   => WB97X-D: Empirical Dispersion <=

    Chai and Head-Gordon Dispersion Correction
    Chai, J.-D.; Head-Gordon, M. (2010), J. Chem. Phys., 132: 6615-6620

        s6 =       1.000000

   => Loading Basis Set <=

    Name: (6-31+G* AUX)
    Role: JKFIT
    Keyword: DF_BASIS_SCF
    atoms 1             entry N          line   252 file /fsx/users/francis/anaconda3/envs/poltype-dev/share/psi4/basis/heavy-aug-cc-pvdz-jkfit.gbs 
    atoms 2-3, 6-12, 14 entry C          line   194 file /fsx/users/francis/anaconda3/envs/poltype-dev/share/psi4/basis/heavy-aug-cc-pvdz-jkfit.gbs 
    atoms 4-5           entry F          line   368 file /fsx/users/francis/anaconda3/envs/poltype-dev/share/psi4/basis/heavy-aug-cc-pvdz-jkfit.gbs 
    atoms 13            entry S          line   730 file /fsx/users/francis/anaconda3/envs/poltype-dev/share/psi4/basis/heavy-aug-cc-pvdz-jkfit.gbs 
    atoms 15-16         entry O          line   310 file /fsx/users/francis/anaconda3/envs/poltype-dev/share/psi4/basis/heavy-aug-cc-pvdz-jkfit.gbs 
    atoms 17-23         entry H          line   116 file /fsx/users/francis/anaconda3/envs/poltype-dev/share/psi4/basis/heavy-aug-cc-pvdz-jkfit.gbs 

   => Loading Basis Set <=

    Name: 6-31+G*
    Role: ORBITAL
    Keyword: BASIS
    atoms 1             entry N          line   138 file /fsx/users/francis/anaconda3/envs/poltype-dev/share/psi4/basis/6-31pgs.gbs 
    atoms 2-3, 6-12, 14 entry C          line   119 file /fsx/users/francis/anaconda3/envs/poltype-dev/share/psi4/basis/6-31pgs.gbs 
    atoms 4-5           entry F          line   176 file /fsx/users/francis/anaconda3/envs/poltype-dev/share/psi4/basis/6-31pgs.gbs 
    atoms 13            entry S          line   344 file /fsx/users/francis/anaconda3/envs/poltype-dev/share/psi4/basis/6-31pgs.gbs 
    atoms 15-16         entry O          line   157 file /fsx/users/francis/anaconda3/envs/poltype-dev/share/psi4/basis/6-31pgs.gbs 
    atoms 17-23         entry H          line    46 file /fsx/users/francis/anaconda3/envs/poltype-dev/share/psi4/basis/6-31pgs.gbs 

  Reading orbitals from file 180, no projection.

  ==> Pre-Iterations <==

   -------------------------------------------------------
    Irrep   Nso     Nmo     Nalpha   Nbeta   Ndocc  Nsocc
   -------------------------------------------------------
     A        322     322       0       0       0       0
   -------------------------------------------------------
    Total     322     322      62      62      62       0
   -------------------------------------------------------

  ==> Integral Setup <==

  ==> DiskDFJK: Density-Fitted J/K Matrices <==

    J tasked:                  Yes
    K tasked:                  Yes
    wK tasked:                 Yes
    Omega:               2.000E-01
    OpenMP threads:              8
    Integrals threads:           8
    Memory [MiB]:             8402
    Algorithm:                Core
    Integral Cache:           NONE
    Schwarz Cutoff:          1E-12
    Fitting Condition:       1E-10

   => Auxiliary Basis Set <=

  Basis Set: (6-31+G* AUX)
    Blend: HEAVY-AUG-CC-PVDZ-JKFIT
    Number of shells: 523
    Number of basis function: 1840
    Number of Cartesian functions: 1840
    Spherical Harmonics?: false
    Max angular momentum: 3

  Cached 100.0% of DFT collocation blocks in 2.970 [GiB].

  Minimum eigenvalue in the overlap matrix is 4.1844041168E-07.
  Using Symmetric Orthogonalization.

  SCF Guess: Orbitals guess was supplied from a previous computation.

  ==> Iterations <==

                           Total Energy        Delta E     RMS |[F,P]|

   @DF-RKS iter   0: -1188.30195621920507   -1.18830e+03   2.10163e-03 
   @DF-RKS iter   1: -1188.11110359048462    1.90853e-01   3.75093e-04 DIIS
   @DF-RKS iter   2: -1188.11173851633566   -6.34926e-04   4.28298e-04 DIIS
   @DF-RKS iter   3: -1188.12023888372369   -8.50037e-03   8.68823e-05 DIIS
   @DF-RKS iter   4: -1188.12051840532718   -2.79522e-04   2.99224e-05 DIIS
   @DF-RKS iter   5: -1188.12056691197495   -4.85066e-05   6.52130e-06 DIIS
   @DF-RKS iter   6: -1188.12057031270319   -3.40073e-06   2.19275e-06 DIIS
   @DF-RKS iter   7: -1188.12057077301688   -4.60314e-07   1.03583e-06 DIIS
   @DF-RKS iter   8: -1188.12057089458108   -1.21564e-07   3.74165e-07 DIIS
   @DF-RKS iter   9: -1188.12057092491750   -3.03364e-08   1.84858e-07 DIIS
   @DF-RKS iter  10: -1188.12057093141880   -6.50130e-09   8.20831e-08 DIIS
   @DF-RKS iter  11: -1188.12057093298995   -1.57115e-09   3.90402e-08 DIIS
   @DF-RKS iter  12: -1188.12057093319390   -2.03954e-10   2.02323e-08 DIIS
   @DF-RKS iter  13: -1188.12057093323006   -3.61524e-11   8.65841e-09 DIIS
  Energy and wave function converged.


  ==> Post-Iterations <==

    Orbital Energies [Eh]
    ---------------------

    Doubly Occupied:                                                      

       1A    -89.083477     2A    -24.872067     3A    -24.871805  
       4A    -19.302684     5A    -19.293681     6A    -14.542653  
       7A    -10.500822     8A    -10.454331     9A    -10.428482  
      10A    -10.406675    11A    -10.385608    12A    -10.357343  
      13A    -10.349718    14A    -10.348759    15A    -10.347623  
      16A    -10.338949    17A     -8.101038    18A     -6.051735  
      19A     -6.047362    20A     -6.041111    21A     -1.390599  
      22A     -1.329489    23A     -1.194420    24A     -1.182554  
      25A     -1.100929    26A     -1.007238    27A     -0.945439  
      28A     -0.906710    29A     -0.892625    30A     -0.868376  
      31A     -0.799443    32A     -0.771687    33A     -0.755274  
      34A     -0.742379    35A     -0.698360    36A     -0.683263  
      37A     -0.670285    38A     -0.649362    39A     -0.629821  
      40A     -0.593708    41A     -0.585276    42A     -0.570139  
      43A     -0.565778    44A     -0.562360    45A     -0.555908  
      46A     -0.552926    47A     -0.548493    48A     -0.534821  
      49A     -0.525321    50A     -0.517053    51A     -0.508938  
      52A     -0.502489    53A     -0.490465    54A     -0.481148  
      55A     -0.471568    56A     -0.446183    57A     -0.434545  
      58A     -0.396060    59A     -0.392873    60A     -0.365403  
      61A     -0.344043    62A     -0.319925  

    Virtual:                                                              

      63A     -0.043995    64A      0.013861    65A      0.034900  
      66A      0.052465    67A      0.057464    68A      0.061408  
      69A      0.066572    70A      0.078023    71A      0.079136  
      72A      0.087688    73A      0.092627    74A      0.100452  
      75A      0.103763    76A      0.112059    77A      0.114330  
      78A      0.116709    79A      0.121337    80A      0.131371  
      81A      0.135489    82A      0.137696    83A      0.143587  
      84A      0.153321    85A      0.159056    86A      0.161369  
      87A      0.167120    88A      0.173467    89A      0.174040  
      90A      0.182907    91A      0.186643    92A      0.193275  
      93A      0.197391    94A      0.200688    95A      0.204511  
      96A      0.209586    97A      0.217230    98A      0.224309  
      99A      0.226280   100A      0.230670   101A      0.239997  
     102A      0.241891   103A      0.242443   104A      0.247489  
     105A      0.249043   106A      0.253267   107A      0.255858  
     108A      0.256046   109A      0.267119   110A      0.270516  
     111A      0.273938   112A      0.285748   113A      0.290598  
     114A      0.293487   115A      0.301337   116A      0.305932  
     117A      0.311294   118A      0.313248   119A      0.319057  
     120A      0.322025   121A      0.327252   122A      0.332790  
     123A      0.340297   124A      0.348803   125A      0.355858  
     126A      0.365498   127A      0.369551   128A      0.379569  
     129A      0.385139   130A      0.390309   131A      0.393016  
     132A      0.395326   133A      0.398441   134A      0.401152  
     135A      0.412285   136A      0.416655   137A      0.424058  
     138A      0.435832   139A      0.445721   140A      0.446986  
     141A      0.460623   142A      0.471889   143A      0.478705  
     144A      0.492190   145A      0.504429   146A      0.518244  
     147A      0.531809   148A      0.536798   149A      0.545593  
     150A      0.552101   151A      0.568511   152A      0.575968  
     153A      0.599698   154A      0.608470   155A      0.617408  
     156A      0.639879   157A      0.664432   158A      0.670471  
     159A      0.697964   160A      0.704119   161A      0.721361  
     162A      0.737812   163A      0.745981   164A      0.756833  
     165A      0.767026   166A      0.772811   167A      0.784277  
     168A      0.803482   169A      0.819974   170A      0.823598  
     171A      0.830883   172A      0.852243   173A      0.869920  
     174A      0.873677   175A      0.886016   176A      0.895281  
     177A      0.910457   178A      0.917346   179A      0.931017  
     180A      0.942434   181A      0.968558   182A      0.968969  
     183A      0.980649   184A      0.999238   185A      1.003650  
     186A      1.027116   187A      1.049929   188A      1.058679  
     189A      1.074683   190A      1.083947   191A      1.091001  
     192A      1.110554   193A      1.116848   194A      1.155494  
     195A      1.161859   196A      1.173630   197A      1.201075  
     198A      1.206870   199A      1.210023   200A      1.224320  
     201A      1.230139   202A      1.239358   203A      1.276108  
     204A      1.284987   205A      1.302098   206A      1.324610  
     207A      1.328990   208A      1.335837   209A      1.345894  
     210A      1.386792   211A      1.407963   212A      1.410046  
     213A      1.416551   214A      1.421107   215A      1.436659  
     216A      1.450722   217A      1.464706   218A      1.471670  
     219A      1.473786   220A      1.481688   221A      1.511687  
     222A      1.514636   223A      1.528683   224A      1.531062  
     225A      1.569308   226A      1.602058   227A      1.630829  
     228A      1.659350   229A      1.674174   230A      1.683734  
     231A      1.714115   232A      1.748816   233A      1.757263  
     234A      1.761260   235A      1.762232   236A      1.770680  
     237A      1.779716   238A      1.788854   239A      1.795937  
     240A      1.830240   241A      1.840261   242A      1.877489  
     243A      1.892245   244A      1.898551   245A      1.915887  
     246A      1.924072   247A      1.925646   248A      1.963013  
     249A      1.969995   250A      1.974846   251A      1.983323  
     252A      2.023712   253A      2.044236   254A      2.057662  
     255A      2.066337   256A      2.071001   257A      2.096727  
     258A      2.118163   259A      2.120326   260A      2.141513  
     261A      2.177091   262A      2.179169   263A      2.189054  
     264A      2.216483   265A      2.224210   266A      2.235314  
     267A      2.257562   268A      2.261896   269A      2.281989  
     270A      2.282699   271A      2.314964   272A      2.324916  
     273A      2.329227   274A      2.346880   275A      2.365488  
     276A      2.387452   277A      2.394472   278A      2.433257  
     279A      2.484549   280A      2.489002   281A      2.537662  
     282A      2.559779   283A      2.606623   284A      2.655579  
     285A      2.690763   286A      2.694648   287A      2.738697  
     288A      2.749613   289A      2.765192   290A      2.791814  
     291A      2.795402   292A      2.845365   293A      2.847244  
     294A      2.880645   295A      2.930950   296A      2.970004  
     297A      2.996732   298A      3.053841   299A      3.157211  
     300A      3.188868   301A      3.224633   302A      3.259116  
     303A      3.372955   304A      3.425093   305A      3.517227  
     306A      3.528031   307A      4.039373   308A      4.298874  
     309A      4.319769   310A      4.347060   311A      4.370089  
     312A      4.389553   313A      4.425633   314A      4.489713  
     315A      4.497331   316A      4.532274   317A      4.602946  
     318A      4.821367   319A      4.885208   320A      5.168116  
     321A      5.716458   322A      7.263159  

    Final Occupation by Irrep:
              A 
    DOCC [    62 ]

  @DF-RKS Final Energy: -1188.12057093323006

   => Energetics <=

    Nuclear Repulsion Energy =           1192.5706211476060616
    One-Electron Energy =               -3999.0195233272925179
    Two-Electron Energy =                1707.9064534725653175
    DFT Exchange-Correlation Energy =     -89.5644151042424426
    Empirical Dispersion Energy =          -0.0137071218664853
    VV10 Nonlocal Energy =                  0.0000000000000000
    Total Energy =                      -1188.1205709332298284

Computation Completed


Properties will be evaluated at   0.000000,   0.000000,   0.000000 [a0]

Properties computed using the SCF density matrix

  Nuclear Dipole Moment: [e a0]
     X:    23.6099      Y:    -2.6902      Z:    -4.3160

  Electronic Dipole Moment: [e a0]
     X:   -20.6460      Y:     2.0762      Z:     3.8686

  Dipole Moment: [e a0]
     X:     2.9639      Y:    -0.6140      Z:    -0.4474     Total:     3.0597

  Dipole Moment: [D]
     X:     7.5335      Y:    -1.5605      Z:    -1.1373     Total:     7.7771


*** tstop() called on cpu-spot-dy-c5n2xlarge-1 at Mon Jun 21 23:43:31 2021
Module time:
	user time   =     487.77 seconds =       8.13 minutes
	system time =       6.89 seconds =       0.11 minutes
	total time  =         65 seconds =       1.08 minutes
Total time:
	user time   =    1210.62 seconds =      20.18 minutes
	system time =      21.03 seconds =       0.35 minutes
	total time  =        166 seconds =       2.77 minutes

*** tstart() called on cpu-spot-dy-c5n2xlarge-1
*** at Mon Jun 21 23:43:31 2021


         ------------------------------------------------------------
                                   SCF GRAD                          
                          Rob Parrish, Justin Turney,                
                       Andy Simmonett, and Alex Sokolov              
         ------------------------------------------------------------

  ==> Geometry <==

    Molecular point group: c1
    Full point group: C1

    Geometry (in Angstrom), charge = 0, multiplicity = 1:

       Center              X                  Y                   Z               Mass       
    ------------   -----------------  -----------------  -----------------  -----------------
         N           -0.435752178194    -1.454709153695     0.625969114602    14.003074004430
         C           -1.737329310250    -1.426832913255     1.049882812728    12.000000000000
         C           -2.493857047330    -0.101568458247     0.819113931604    12.000000000000
         F           -3.590126666376    -0.385570136653     0.070258218181    18.998403162730
         F           -2.916886069817     0.337999674302     2.032198390115    18.998403162730
         C           -1.730195578028     1.055248283202     0.130592043435    12.000000000000
         C           -0.333938866331     0.808874933314    -0.248639436105    12.000000000000
         C            0.412630526938     1.813863243758    -0.870637242020    12.000000000000
         C            1.730746623229     1.610354979023    -1.226295339778    12.000000000000
         C            2.333646157526     0.370321811443    -0.984948505894    12.000000000000
         C            1.601206727855    -0.642060227600    -0.356987543259    12.000000000000
         C            0.278428841478    -0.426138559321     0.007375048000    12.000000000000
         S            4.021473475405     0.170669635648    -1.452609576061    31.972071174400
         C            4.593072002866    -1.127932544046    -0.324157933903    12.000000000000
         O           -2.272783725579    -2.375920151479     1.577462389828    15.994914619570
         O           -2.315801501192     2.098092578788    -0.060544930458    15.994914619570
         H            2.293472419276     2.414089470701    -1.690906344934     1.007825032230
         H           -0.065734527048     2.769634640798    -1.054920537621     1.007825032230
         H            0.028034414039    -2.339475496756     0.795755177156     1.007825032230
         H            2.048598156881    -1.611243007864    -0.161165359677     1.007825032230
         H            4.580240586126    -0.786813426119     0.713909384067     1.007825032230
         H            4.034706806581    -2.060091867868    -0.433243670216     1.007825032230
         H            5.626553260750    -1.311446640452    -0.622644777119     1.007825032230

  Nuclear repulsion = 1192.570621147606062

  ==> Basis Set <==

  Basis Set: 6-31+G*
    Blend: 6-31+G*
    Number of shells: 144
    Number of basis function: 322
    Number of Cartesian functions: 322
    Spherical Harmonics?: false
    Max angular momentum: 2

  ==> DFJKGrad: Density-Fitted SCF Gradients <==

    Gradient:                    1
    J tasked:                  Yes
    K tasked:                  Yes
    wK tasked:                 Yes
    Omega:               2.000E-01
    OpenMP threads:              8
    Integrals threads:           8
    Memory [MiB]:            11444
    Schwarz Cutoff:          0E+00
    Fitting Condition:       1E-10

   => Auxiliary Basis Set <=

  Basis Set: (6-31+G* AUX)
    Blend: HEAVY-AUG-CC-PVDZ-JKFIT
    Number of shells: 523
    Number of basis function: 1840
    Number of Cartesian functions: 1840
    Spherical Harmonics?: false
    Max angular momentum: 3

  ==> DFT Potential <==

   => Composite Functional: WB97X-D <= 

    wB97X-D Hyb-GGA Exchange-Correlation Functional

    J.-D. Chai and M. Head-Gordon, Phys. Chem. Chem. Phys. 10, 6615 (2008)

    Deriv               =              1
    GGA                 =           TRUE
    Meta                =          FALSE

    Exchange Hybrid     =           TRUE
    MP2 Hybrid          =          FALSE

   => Exchange-Correlation Functionals <=

    1.0000   wB97D range-separated functional

   => Exact (HF) Exchange <=

    0.7780            HF,LR [omega = 0.2000]
    0.2220               HF 

   => Molecular Quadrature <=

    Radial Scheme          =       TREUTLER
    Pruning Scheme         =           FLAT
    Nuclear Scheme         =       TREUTLER

    BS radius alpha        =              1
    Pruning alpha          =              1
    Radial Points          =             75
    Spherical Points       =            302
    Total Points           =         520853
    Total Blocks           =           3858
    Max Points             =            256
    Max Functions          =            287


  -Total Gradient:
     Atom            X                  Y                   Z
    ------   -----------------  -----------------  -----------------
       1       -0.000026494169     0.002977593975    -0.001191442806
       2        0.000228692972     0.002425183516    -0.000978824946
       3        0.004981269287     0.000222330767    -0.001547815052
       4       -0.001795752825    -0.000198124263    -0.000590985144
       5       -0.001091093116     0.000408430278     0.001272991577
       6       -0.001684038542    -0.003013539851     0.001612170574
       7        0.001630646033     0.000299157591    -0.000548176013
       8       -0.000296891228    -0.001308974972     0.000760548978
       9        0.002092195210    -0.003904992374     0.004254126651
      10       -0.000639052379     0.003753051572    -0.007884512255
      11       -0.003387852522     0.000308725827     0.002500719582
      12        0.004440236555    -0.001067720259    -0.000983927810
      13        0.000665881159     0.000996121429     0.000119308998
      14       -0.002679585357    -0.001262660453     0.002387180615
      15       -0.000542188684    -0.002145720644     0.001007486562
      16        0.000435799678     0.000747084524    -0.000443836074
      17       -0.000802557076     0.000516746969    -0.000277641154
      18        0.000712317276    -0.000498712571    -0.000145307384
      19       -0.000839950461    -0.000527847495     0.000544305428
      20        0.000858517107    -0.000650988846    -0.000234823213
      21        0.001643609444     0.000246782497     0.000143919338
      22       -0.001337163706     0.000039910409     0.000713096146
      23       -0.001289701654     0.001424881338    -0.001002165763


*** tstop() called on cpu-spot-dy-c5n2xlarge-1 at Mon Jun 21 23:43:55 2021
Module time:
	user time   =     152.51 seconds =       2.54 minutes
[...]
	 ---------------------------------------------------------------------------
	   Coordinate                Previous        Force       Change         New 
	   ----------                --------       ------       ------       ------
	    1 R(1,2)          =      1.369820     0.000751     0.000077     1.369897
	    2 R(1,12)         =      1.397637     0.000247     0.000074     1.397710
	    3 R(1,19)         =      1.012768     0.000157     0.000070     1.012837
	    4 R(2,3)          =      1.547876    -0.000362    -0.000257     1.547619
	    5 R(2,15)         =      1.209172    -0.001557    -0.000164     1.209008
	    6 R(3,4)          =      1.353801    -0.005594    -0.001018     1.352783
	    7 R(3,5)          =      1.357757     0.000494     0.000077     1.357834
	    8 R(3,6)          =      1.553433     0.000578    -0.000016     1.553417
	    9 R(6,7)          =      1.466221     0.000049     0.000018     1.466239
	   10 R(6,16)         =      1.210916    -0.002318    -0.000213     1.210703
	   11 R(7,8)          =      1.403316    -0.003739    -0.000620     1.402696
	   12 R(7,12)         =      1.400244     0.005200     0.001014     1.401257
	   13 R(8,9)          =      1.377814     0.005357     0.000972     1.378786
	   14 R(8,18)         =      1.085497    -0.000130     0.000033     1.085531
	   15 R(9,10)         =      1.409338    -0.003584    -0.000643     1.408696
	   16 R(9,17)         =      1.085318     0.000102     0.000065     1.085383
	   17 R(10,11)        =      1.392950     0.002478     0.000407     1.393357
	   18 R(10,13)        =      1.767161    -0.000454    -0.000150     1.767011
	   19 R(11,12)        =      1.397189    -0.003159    -0.000535     1.396654
	   20 R(11,20)        =      1.085005     0.000226     0.000084     1.085089
	   21 R(13,14)        =      1.810325     0.001477     0.000449     1.810774
	   22 R(14,21)        =      1.092645    -0.000675    -0.000141     1.092504
	   23 R(14,22)        =      1.091931    -0.000098    -0.000001     1.091930
	   24 R(14,23)        =      1.092807     0.001643     0.000430     1.093238
	   25 B(1,2,3)        =    115.883116     0.000004     0.020281   115.903397
	   26 B(1,2,15)       =    122.852816    -0.000003    -0.008411   122.844405
	   27 B(1,12,7)       =    120.997289    -0.000013    -0.035966   120.961323
	   28 B(1,12,11)      =    118.720799     0.000009     0.019358   118.740158
	   29 B(2,1,12)       =    127.051926     0.000006     0.008426   127.060351
	   30 B(2,1,19)       =    114.442505    -0.000000    -0.002742   114.439763
	   31 B(2,3,4)        =    107.488112     0.000005     0.040352   107.528463
	   32 B(2,3,5)        =    107.022064    -0.000005    -0.040724   106.981340
	   33 B(2,3,6)        =    117.834209     0.000001     0.003888   117.838096
	   34 B(3,2,15)       =    121.259761    -0.000001    -0.010803   121.248958
	   35 B(3,6,7)        =    117.092602     0.000004     0.006653   117.099255
	   36 B(3,6,16)       =    118.213003     0.000003     0.007422   118.220426
	   37 B(4,3,5)        =    108.264441     0.000004     0.012931   108.277372
	   38 B(4,3,6)        =    108.253334     0.000002     0.020123   108.273456
	   39 B(5,3,6)        =    107.659949    -0.000007    -0.036018   107.623931
	   40 B(6,7,8)        =    120.072749     0.000008     0.019600   120.092349
	   41 B(6,7,12)       =    121.010164    -0.000002    -0.000935   121.009229
	   42 B(7,6,16)       =    124.691489    -0.000007    -0.014190   124.677299
	   43 B(7,8,9)        =    121.140269     0.000000    -0.001636   121.138633
	   44 B(7,8,18)       =    117.889766     0.000013     0.047787   117.937553
	   45 B(7,12,11)      =    120.280630     0.000003     0.016815   120.297444
	   46 B(8,7,12)       =    118.915667    -0.000006    -0.018424   118.897243
	   47 B(8,9,10)       =    119.786812    -0.000002    -0.002758   119.784053
	   48 B(8,9,17)       =    120.453687    -0.000013    -0.043119   120.410568
	   49 B(9,8,18)       =    120.959329    -0.000013    -0.046055   120.913274
	   50 B(9,10,11)      =    119.659094     0.000006     0.020079   119.679174
	   51 B(9,10,13)      =    116.505644    -0.000002    -0.012272   116.493372
	   52 B(10,9,17)      =    119.758641     0.000015     0.045857   119.804497
	   53 B(10,11,12)     =    120.196330    -0.000002    -0.014124   120.182206
	   54 B(10,11,20)     =    120.944067    -0.000005    -0.013829   120.930238
	   55 B(10,13,14)     =    103.957564    -0.000002    -0.016767   103.940797
	   56 B(11,10,13)     =    123.811025    -0.000003    -0.007817   123.803208
	   57 B(12,1,19)      =    118.498910    -0.000005    -0.006162   118.492749
	   58 B(12,11,20)     =    118.854209     0.000006     0.028094   118.882303
	   59 B(13,14,21)     =    111.224653    -0.000002    -0.008449   111.216204
	   60 B(13,14,22)     =    112.869894     0.000000     0.004501   112.874395
	   61 B(13,14,23)     =    105.311655    -0.000014    -0.078981   105.232674
	   62 B(21,14,22)     =    111.140459     0.000004     0.013236   111.153695
	   63 B(21,14,23)     =    108.273487     0.000008     0.045307   108.318794
	   64 B(22,14,23)     =    107.687462     0.000004     0.023009   107.710471
	   65 D(1,2,3,4)      =    126.452967     0.000001     0.021788   126.474755
	   66 D(1,2,3,5)      =   -117.436473     0.000002     0.036353  -117.400120
	   67 D(1,2,3,6)      =      3.924257    -0.000001    -0.041272     3.882985
	   68 D(1,12,7,6)     =      0.564580    -0.000001    -0.054616     0.509964
	   69 D(1,12,7,8)     =   -179.868761    -0.000000    -0.016047  -179.884808
	   70 D(1,12,11,10)   =    179.332330     0.000000     0.018525   179.350854
	   71 D(1,12,11,20)   =      0.169158     0.000000     0.007635     0.176793
	   72 D(2,1,12,7)     =     -0.670758     0.000000     0.032139    -0.638619
	   73 D(2,1,12,11)    =    179.740048     0.000000    -0.002591   179.737457
	   74 D(2,3,6,7)      =     -4.030490     0.000001     0.020868    -4.009622
	   75 D(2,3,6,16)     =    176.560302     0.000001     0.032540   176.592842
	   76 D(3,2,1,12)     =     -1.672394     0.000000     0.017269    -1.655125
	   77 D(3,2,1,19)     =    179.288314     0.000001     0.051253   179.339567
	   78 D(3,6,7,8)      =   -177.730298    -0.000001    -0.012399  -177.742697
	   79 D(3,6,7,12)     =      1.831383    -0.000000     0.026463     1.857846
	   80 D(4,3,2,15)     =    -54.281320     0.000001     0.119210   -54.162110
	   81 D(4,3,6,7)      =   -126.169420    -0.000001    -0.052812  -126.222232
	   82 D(4,3,6,16)     =     54.421372    -0.000001    -0.041141    54.380232
	   83 D(5,3,2,15)     =     61.829241     0.000002     0.133774    61.963015
	   84 D(5,3,6,7)      =    117.001303    -0.000001    -0.059434   116.941869
	   85 D(5,3,6,16)     =    -62.407905    -0.000001    -0.047762   -62.455667
	   86 D(6,3,2,15)     =   -176.810030    -0.000000     0.056149  -176.753881
	   87 D(6,7,8,9)      =    179.342417     0.000000     0.024179   179.366596
	   88 D(6,7,8,18)     =      0.517825     0.000000     0.019382     0.537208
	   89 D(6,7,12,11)    =   -179.852604    -0.000000    -0.019341  -179.871945
	   90 D(7,8,9,10)     =      1.271556    -0.000000     0.005603     1.277159
	   91 D(7,8,9,17)     =   -178.390062    -0.000000     0.009405  -178.380657
	   92 D(7,12,1,19)    =    178.334041     0.000000    -0.003027   178.331014
	   93 D(7,12,11,10)   =     -0.259896    -0.000000    -0.015744    -0.275641
	   94 D(7,12,11,20)   =   -179.423068    -0.000000    -0.026634  -179.449703
	   95 D(8,7,6,16)     =      1.636538    -0.000001    -0.024752     1.611786
	   96 D(8,7,12,11)    =     -0.285945    -0.000000     0.019228    -0.266717
	   97 D(8,9,10,11)    =     -1.802443    -0.000000    -0.002346    -1.804790
	   98 D(8,9,10,13)    =    179.920109    -0.000000    -0.001845   179.918264
	   99 D(9,8,7,12)     =     -0.228405     0.000000    -0.013938    -0.242343
	  100 D(9,10,11,12)   =      1.299698     0.000000     0.007634     1.307332
	  101 D(9,10,11,20)   =   -179.554871     0.000000     0.019105  -179.535766
	  102 *D(9,10,13,14)  =    154.040730    -0.000000    -0.000000   154.040730
	  103 D(10,9,8,18)    =   -179.939929     0.000000     0.011661  -179.928268
	  104 *D(10,13,14,21) =    -65.432795     0.000000     0.000000   -65.432795
	  105 D(10,13,14,22)  =     60.279966     0.000001     0.014472    60.294439
	  106 D(10,13,14,23)  =    177.497138    -0.000000    -0.003990   177.493148
	  107 D(11,10,9,17)   =    177.861546    -0.000000    -0.006428   177.855119
	  108 *D(11,10,13,14) =    -24.157688     0.000000     0.000000   -24.157688
	  109 D(11,12,1,19)   =     -1.255153    -0.000000    -0.037758    -1.292911
	  110 D(12,1,2,15)    =    179.074792    -0.000000    -0.081851   178.992941
	  111 D(12,7,6,16)    =   -178.801781    -0.000000     0.014110  -178.787671
	  112 D(12,7,8,18)    =   -179.052997    -0.000000    -0.018735  -179.071732
	  113 D(12,11,10,13)  =    179.444390     0.000000     0.007065   179.451455
	  114 D(13,10,9,17)   =     -0.415901    -0.000000    -0.005926    -0.421827
	  115 D(13,10,11,20)  =     -1.410179     0.000000     0.018536    -1.391642
	  116 D(15,2,1,19)    =      0.035500    -0.000000    -0.047867    -0.012368
	  117 D(17,9,8,18)    =      0.398453     0.000000     0.015463     0.413916
	  118 R(1,X)          =     -0.445575    -0.000253    -0.000150    -0.445725
	  119 R(1,Y)          =     -1.471085    -0.000315     0.000056    -1.471028
	  120 R(1,Z)          =      0.613238     0.000300     0.000428     0.613665
	  121 R(2,X)          =     -1.751108    -0.001154    -0.000248    -1.751356
	  122 R(2,Y)          =     -1.446637     0.000299     0.000367    -1.446269
	  123 R(2,Z)          =      1.027233    -0.000093     0.000355     1.027588
	  124 R(3,X)          =     -2.499035    -0.001720    -0.000530    -2.499565
	  125 R(3,Y)          =     -0.106585    -0.000562    -0.000191    -0.106776
	  126 R(3,Z)          =      0.825273    -0.000931    -0.000335     0.824937
	  127 R(4,X)          =     -3.633195     0.002592    -0.000101    -3.633296
	  128 R(4,Y)          =     -0.373566     0.000781     0.000138    -0.373428
	  129 R(4,Z)          =      0.135940     0.002440     0.000830     0.136770
	  130 R(5,X)          =     -2.846456    -0.000127     0.000500    -2.845956
	  131 R(5,Y)          =      0.344394    -0.000135     0.000060     0.344454
	  132 R(5,Z)          =      2.057921    -0.000094    -0.000053     2.057868
	  133 R(6,X)          =     -1.746602    -0.001833    -0.000650    -1.747252
	  134 R(6,Y)          =      1.041600     0.000657    -0.000005     1.041594
	  135 R(6,Z)          =      0.098177    -0.000358    -0.000132     0.098044
	  136 R(7,X)          =     -0.346623    -0.001498    -0.000453    -0.347075
	  137 R(7,Y)          =      0.798577     0.002592     0.000533     0.799110
	  138 R(7,Z)          =     -0.263489    -0.000559     0.000200    -0.263288
	  139 R(8,X)          =      0.406337    -0.003068    -0.000717     0.405620
	  140 R(8,Y)          =      1.810051    -0.000301     0.000005     1.810056
	  141 R(8,Z)          =     -0.879334     0.001290     0.000422    -0.878913
	  142 R(9,X)          =      1.727255     0.002073     0.000208     1.727463
	  143 R(9,Y)          =      1.610096    -0.001431    -0.000269     1.609826
	  144 R(9,Z)          =     -1.216328     0.000209     0.000233    -1.216095
	  145 R(10,X)         =      2.332598    -0.000343    -0.000270     2.332328
	  146 R(10,Y)         =      0.362311     0.001372     0.000206     0.362518
	  147 R(10,Z)         =     -0.965671    -0.000154     0.000141    -0.965530
	  148 R(11,X)         =      1.600278    -0.001141    -0.000267     1.600011
	  149 R(11,Y)         =     -0.646698    -0.000809    -0.000264    -0.646962
	  150 R(11,Z)         =     -0.344448     0.000917     0.000292    -0.344156
	  151 R(12,X)         =      0.264269     0.001804     0.000215     0.264484
	  152 R(12,Y)         =     -0.432663    -0.001561    -0.000324    -0.432988
	  153 R(12,Z)         =      0.003983     0.000005     0.000035     0.004019
	  154 R(13,X)         =      4.028838    -0.000807    -0.000427     4.028411
	  155 R(13,Y)         =      0.200353     0.000968     0.000311     0.200664
	  156 R(13,Z)         =     -1.434071     0.000020     0.000103    -1.433967
	  157 R(14,X)         =      4.665674    -0.001234    -0.000653     4.665021
	  158 R(14,Y)         =     -1.085732    -0.000289    -0.000088    -1.085820
	  159 R(14,Z)         =     -0.330574     0.001223     0.000504    -0.330070
	  160 R(15,X)         =     -2.296588    -0.000392    -0.000592    -2.297181
	  161 R(15,Y)         =     -2.399523     0.001397     0.000206    -2.399318
	  162 R(15,Z)         =      1.533747    -0.000923    -0.000713     1.533034
	  163 R(16,X)         =     -2.346083    -0.000490    -0.000577    -2.346660
	  164 R(16,Y)         =      2.070861    -0.001190    -0.000219     2.070642
	  165 R(16,Z)         =     -0.119907     0.000106    -0.000160    -0.120067
	  166 R(17,X)         =      2.306550     0.000075    -0.000289     2.306261
	  167 R(17,Y)         =      2.408725     0.000246     0.000237     2.408963
	  168 R(17,Z)         =     -1.668571     0.000366     0.000336    -1.668234
	  169 R(18,X)         =     -0.079159    -0.000304     0.000066    -0.079094
	  170 R(18,Y)         =      2.763063     0.000699     0.000341     2.763404
	  171 R(18,Z)         =     -1.064718    -0.000049    -0.000092    -1.064809
	  172 R(19,X)         =      0.025987    -0.000678    -0.000430     0.025557
	  173 R(19,Y)         =     -2.354277    -0.000645    -0.000190    -2.354467
	  174 R(19,Z)         =      0.765875     0.000749     0.000332     0.766207
	  175 R(20,X)         =      2.047714     0.000357     0.000256     2.047970
	  176 R(20,Y)         =     -1.612712    -0.000458    -0.000105    -1.612817
	  177 R(20,Z)         =     -0.135039     0.000507     0.000342    -0.134697
	  178 R(21,X)         =      4.656074    -0.001503    -0.000831     4.655242
	  179 R(21,Y)         =     -0.754050    -0.000042     0.000031    -0.754020
	  180 R(21,Z)         =      0.710468     0.000433     0.000317     0.710784
	  181 R(22,X)         =      4.145405    -0.001096    -0.000567     4.144838
	  182 R(22,Y)         =     -2.038903    -0.000191    -0.000112    -2.039015
	  183 R(22,Z)         =     -0.445018     0.000710     0.000319    -0.444699
	  184 R(23,X)         =      5.705044    -0.000011    -0.000397     5.704647
	  185 R(23,Y)         =     -1.236429     0.001108     0.000685    -1.235745
	  186 R(23,Z)         =     -0.632614    -0.001209    -0.000555    -0.633170
	 ---------------------------------------------------------------------------
	Successfully symmetrized geometry.

  ==> Convergence Check <==

  Measures of convergence in internal coordinates in au.
  Criteria marked as inactive (o), active & met (*), and active & unmet ( ).
  --------------------------------------------------------------------------------------------- ~
   Step     Total Energy     Delta E     MAX Force     RMS Force      MAX Disp      RMS Disp    ~
  --------------------------------------------------------------------------------------------- ~
    Convergence Criteria             o    2.50e-03 *    1.70e-03 *    1.00e-02 *    6.70e-03 *  ~
  --------------------------------------------------------------------------------------------- ~
      1   -1188.12103483   -1.19e+03 o    6.79e-04 *    1.41e-04 *    2.33e-03 *    6.69e-04 *  ~
  ---------------------------------------------------------------------------------------------


  **** Optimization is complete! (in 1 steps) ****

  ==> Optimization Summary <==

  Measures of convergence in internal coordinates in au.
  --------------------------------------------------------------------------------------------------------------- ~
   Step         Total Energy             Delta E       MAX Force       RMS Force        MAX Disp        RMS Disp  ~
  --------------------------------------------------------------------------------------------------------------- ~
      1   -1188.121034832677  -1188.121034832677      0.00067904      0.00014093      0.00233480      0.00066919  ~
  --------------------------------------------------------------------------------------------------------------- ~

	Writing optimization data to binary file.
	Final energy is  -1188.1210348326774
	Final (previous) structure:
	Cartesian Geometry (in Angstrom)
	    N    -0.4455751849  -1.4710845062   0.6132378594
	    C    -1.7511084421  -1.4466367659   1.0272330205
	    C    -2.4990352174  -0.1065851919   0.8252725604
	    F    -3.6331952686  -0.3735655227   0.1359400347
	    F    -2.8464556290   0.3443938146   2.0579206869
	    C    -1.7466018733   1.0415995021   0.0981766145
	    C    -0.3466227083   0.7985769054  -0.2634885042
	    C     0.4063372503   1.8100513488  -0.8793344795
	    C     1.7272550611   1.6100959542  -1.2163281994
	    C     2.3325976210   0.3623113964  -0.9656709976
	    C     1.6002781357  -0.6466978222  -0.3444482699
	    C     0.2642688837  -0.4326634072   0.0039832837
	    S     4.0288376270   0.2003528384  -1.4340707166
	    C     4.6656738737  -1.0857316750  -0.3305741870
	    O    -2.2965883602  -2.3995233908   1.5337465717
	    O    -2.3460833034   2.0708607471  -0.1199073797
	    H     2.3065502873   2.4087254895  -1.6685709452
	    H    -0.0791590458   2.7630628344  -1.0647176747
	    H     0.0259868313  -2.3542774265   0.7658752410
	    H     2.0477141028  -1.6127120642  -0.1350385337
	    H     4.6560738105  -0.7540504709   0.7104675907
	    H     4.1454047979  -2.0389027010  -0.4450181914
	    H     5.7050439091  -1.2364293470  -0.6326144941
	Saving final (previous) structure.
			--------------------------
			 OPTKING Finished Execution 
			--------------------------

    Final optimized geometry and variables:
    Molecular point group: c1
    Full point group: C1

    Geometry (in Angstrom), charge = 0, multiplicity = 1:

    N           -0.445575186622    -1.471084511964     0.613237861777
    C           -1.751108449024    -1.446636771556     1.027233024541
    C           -2.499035227245    -0.106585192332     0.825272563597
    F           -3.633195282884    -0.373565524197     0.135940035277
    F           -2.846455640210     0.344393815927     2.057920695026
    C           -1.746601880122     1.041599506229     0.098176614870
    C           -0.346622709659     0.798576908566    -0.263488505201
    C            0.406337251940     1.810051355900    -0.879334482908
    C            1.727255067929     1.610095960532    -1.216328204186
    C            2.332597630210     0.362311397777    -0.965671001423
    C            1.600278142023    -0.646697824749    -0.344448271298
    C            0.264268884785    -0.432663408872     0.003983283724
    S            4.028837642866     0.200352839228    -1.434070722235
    C            4.665673892072    -1.085731679291    -0.330574188346
    O           -2.296588369186    -2.399523400195     1.533746577773
    O           -2.346083312661     2.070860755244    -0.119907380158
    H            2.306550296323     2.408725498978    -1.668570951736
    H           -0.079159046085     2.763062845278    -1.064717678899
    H            0.025986831413    -2.354277435772     0.765875244038
    H            2.047714110815    -1.612712070519    -0.135038534183
    H            4.656073828762    -0.754050473857     0.710467593542
    H            4.145404814225    -2.038902708990    -0.445018193102
    H            5.705043931478    -1.236429351812    -0.632614496549

	Removing binary optimization data file.
	Cleaning optimization helper files.

    Psi4 stopped on: Tuesday, 22 June 2021 12:01AM
    Psi4 wall time for execution: 0:20:33.40

*** Psi4 exiting successfully. Buy a developer a beer!
