
    -----------------------------------------------------------------------
          Psi4: An Open-Source Ab Initio Electronic Structure Package
                               Psi4 1.3.2 release

                         Git: Rev {HEAD} ecbda83 


    R. M. Parrish, L. A. Burns, D. G. A. Smith, A. C. Simmonett,
    A. E. DePrince III, E. G. Hohenstein, U. Bozkaya, A. Yu. Sokolov,
    R. Di Remigio, R. M. Richard, J. F. Gonthier, A. M. James,
    H. R. McAlexander, A. Kumar, M. Saitow, X. Wang, B. P. Pritchard,
    P. Verma, H. F. Schaefer III, K. Patkowski, R. A. King, E. F. Valeev,
    F. A. Evangelista, J. M. Turney, T. D. Crawford, and C. D. Sherrill,
    J. Chem. Theory Comput. 13(7) pp 3185--3197 (2017).
    (doi: 10.1021/acs.jctc.7b00174)


                         Additional Contributions by
    P. Kraus, H. Kruse, M. H. Lechner, M. C. Schieber, R. A. Shaw,
    A. Alenaizan, R. Galvelis, Z. L. Glick, S. Lehtola, and J. P. Misiewicz

    -----------------------------------------------------------------------


    Psi4 started on: Tuesday, 22 June 2021 03:18AM

    Process ID: 22767
    Host:       cpu-spot-dy-c5n2xlarge-1
    PSIDATADIR: /fsx/users/francis/anaconda3/envs/poltype-dev/share/psi4
    Memory:     500.0 MiB
    Threads:    1
    
  ==> Input File <==

--------------------------------------------------------------------------
molecule { 
0 1
 N   -1.071604   -1.481032    0.180169
 C   -2.383369   -1.148511    0.393861
 C   -2.707581    0.381743    0.416772
 F   -3.699755    0.609542   -0.510903
 F   -3.207587    0.677759    1.664843
 C   -1.528248    1.372816    0.121837
 C   -0.180420    0.793324   -0.081939
 C    0.925435    1.636078   -0.326241
 C    2.211100    1.109422   -0.510144
 C    2.427198   -0.296285   -0.468606
 C    1.314690   -1.135453   -0.231022
 C    0.023663   -0.612639   -0.041863
 S    3.979905   -1.153948   -0.639227
 C    5.329973    0.058602   -0.752517
 O   -3.222831   -2.021133    0.562485
 O   -1.726761    2.583236    0.079862
 H    3.023952    1.810914   -0.683450
 H    0.754251    2.712720   -0.360616
 H   -0.925846   -2.481343    0.184103
 H    1.460274   -2.215995   -0.183429
 H    4.957100    1.081704   -0.803263
 H    5.968493   -0.048397    0.130043
 H    5.915997   -0.155182   -1.651718
}
set optking { 
  frozen_dihedral = ("
    11 10 13 14
    9 10 13 14
    21 14 13 10
  ")
}
set {
  geom_maxiter 400
  g_convergence GAU_LOOSE
  dynamic_level 1
}
memory 16GB
set_num_threads(8)
psi4_io.set_default_path("/scratch/Psi4-ligand")
for _ in range(1):
  try:
    set opt_coordinates both
    optimize('wb97x-d/6-31+G*')
    break
  except OptimizationConvergenceError:
    break
  else:
    try:
      set opt_coordinates cartesian
      optimize('wb97x-d/6-31+G*')
      break
    except OptimizationConvergenceError:
      pass
clean()
--------------------------------------------------------------------------

  Memory set to  14.901 GiB by Python driver.
  Threads set to 8 by Python driver.
gradient() will perform analytic gradient computation.

*** tstart() called on cpu-spot-dy-c5n2xlarge-1
*** at Tue Jun 22 03:18:00 2021

   => Loading Basis Set <=

    Name: 6-31+G*
    Role: ORBITAL
    Keyword: BASIS
    atoms 1             entry N          line   138 file /fsx/users/francis/anaconda3/envs/poltype-dev/share/psi4/basis/6-31pgs.gbs 
    atoms 2-3, 6-12, 14 entry C          line   119 file /fsx/users/francis/anaconda3/envs/poltype-dev/share/psi4/basis/6-31pgs.gbs 
    atoms 4-5           entry F          line   176 file /fsx/users/francis/anaconda3/envs/poltype-dev/share/psi4/basis/6-31pgs.gbs 
    atoms 13            entry S          line   344 file /fsx/users/francis/anaconda3/envs/poltype-dev/share/psi4/basis/6-31pgs.gbs 
    atoms 15-16         entry O          line   157 file /fsx/users/francis/anaconda3/envs/poltype-dev/share/psi4/basis/6-31pgs.gbs 
    atoms 17-23         entry H          line    46 file /fsx/users/francis/anaconda3/envs/poltype-dev/share/psi4/basis/6-31pgs.gbs 


         ---------------------------------------------------------
                                   SCF
               by Justin Turney, Rob Parrish, Andy Simmonett
                          and Daniel G. A. Smith
                              RKS Reference
                        8 Threads,  15258 MiB Core
         ---------------------------------------------------------

  ==> Geometry <==

    Molecular point group: c1
    Full point group: C1

    Geometry (in Angstrom), charge = 0, multiplicity = 1:

       Center              X                  Y                   Z               Mass       
    ------------   -----------------  -----------------  -----------------  -----------------
         N           -1.023674474289    -1.491045481193     0.208439583446    14.003074004430
         C           -2.335439474289    -1.158524481193     0.422131583446    12.000000000000
         C           -2.659651474289     0.371729518807     0.445042583446    12.000000000000
         F           -3.651825474289     0.599528518807    -0.482632416554    18.998403162730
         F           -3.159657474289     0.667745518807     1.693113583446    18.998403162730
         C           -1.480318474289     1.362802518807     0.150107583446    12.000000000000
         C           -0.132490474289     0.783310518807    -0.053668416554    12.000000000000
         C            0.973364525711     1.626064518807    -0.297970416554    12.000000000000
         C            2.259029525711     1.099408518807    -0.481873416554    12.000000000000
         C            2.475127525711    -0.306298481193    -0.440335416554    12.000000000000
         C            1.362619525711    -1.145466481193    -0.202751416554    12.000000000000
         C            0.071592525711    -0.622652481193    -0.013592416554    12.000000000000
         S            4.027834525711    -1.163961481193    -0.610956416554    31.972071174400
         C            5.377902525711     0.048588518807    -0.724246416554    12.000000000000
         O           -3.174901474289    -2.031146481193     0.590755583446    15.994914619570
         O           -1.678831474289     2.573222518807     0.108132583446    15.994914619570
         H            3.071881525711     1.800900518807    -0.655179416554     1.007825032230
         H            0.802180525711     2.702706518807    -0.332345416554     1.007825032230
         H           -0.877916474289    -2.491356481193     0.212373583446     1.007825032230
         H            1.508203525711    -2.226008481193    -0.155158416554     1.007825032230
         H            5.005029525711     1.071690518807    -0.774992416554     1.007825032230
         H            6.016422525711    -0.058410481193     0.158313583446     1.007825032230
         H            5.963926525711    -0.165195481193    -1.623447416554     1.007825032230

  Running in c1 symmetry.

  Rotational constants: A =      0.03855  B =      0.00804  C =      0.00692 [cm^-1]
  Rotational constants: A =   1155.59414  B =    241.00842  C =    207.53960 [MHz]
  Nuclear repulsion = 1172.743794974063348

  Charge       = 0
  Multiplicity = 1
  Electrons    = 124
  Nalpha       = 62
  Nbeta        = 62

  ==> Algorithm <==

  SCF Algorithm Type is DF.
  DIIS enabled.
  MOM disabled.
  Fractional occupation disabled.
  Guess Type is SAD.
  Energy threshold   = 1.00e-08
  Density threshold  = 1.00e-08
  Integral threshold = 0.00e+00

  ==> Primary Basis <==

  Basis Set: 6-31+G*
    Blend: 6-31+G*
    Number of shells: 144
    Number of basis function: 322
    Number of Cartesian functions: 322
    Spherical Harmonics?: false
    Max angular momentum: 2

  ==> DFT Potential <==

   => Composite Functional: WB97X-D <= 

    wB97X-D Hyb-GGA Exchange-Correlation Functional

    J.-D. Chai and M. Head-Gordon, Phys. Chem. Chem. Phys. 10, 6615 (2008)

    Deriv               =              1
    GGA                 =           TRUE
    Meta                =          FALSE

    Exchange Hybrid     =           TRUE
    MP2 Hybrid          =          FALSE

   => Exchange-Correlation Functionals <=

    1.0000   wB97D range-separated functional

   => Exact (HF) Exchange <=

    0.7780            HF,LR [omega = 0.2000]
    0.2220               HF 

   => Molecular Quadrature <=

    Radial Scheme          =       TREUTLER
    Pruning Scheme         =           FLAT
    Nuclear Scheme         =       TREUTLER

    BS radius alpha        =              1
    Pruning alpha          =              1
    Radial Points          =             75
    Spherical Points       =            302
    Total Points           =         520858
    Total Blocks           =           3891
    Max Points             =            256
    Max Functions          =            288

   => WB97X-D: Empirical Dispersion <=

    Chai and Head-Gordon Dispersion Correction
    Chai, J.-D.; Head-Gordon, M. (2010), J. Chem. Phys., 132: 6615-6620

        s6 =       1.000000

   => Loading Basis Set <=

    Name: (6-31+G* AUX)
    Role: JKFIT
    Keyword: DF_BASIS_SCF
    atoms 1             entry N          line   252 file /fsx/users/francis/anaconda3/envs/poltype-dev/share/psi4/basis/heavy-aug-cc-pvdz-jkfit.gbs 
    atoms 2-3, 6-12, 14 entry C          line   194 file /fsx/users/francis/anaconda3/envs/poltype-dev/share/psi4/basis/heavy-aug-cc-pvdz-jkfit.gbs 
    atoms 4-5           entry F          line   368 file /fsx/users/francis/anaconda3/envs/poltype-dev/share/psi4/basis/heavy-aug-cc-pvdz-jkfit.gbs 
    atoms 13            entry S          line   730 file /fsx/users/francis/anaconda3/envs/poltype-dev/share/psi4/basis/heavy-aug-cc-pvdz-jkfit.gbs 
    atoms 15-16         entry O          line   310 file /fsx/users/francis/anaconda3/envs/poltype-dev/share/psi4/basis/heavy-aug-cc-pvdz-jkfit.gbs 
    atoms 17-23         entry H          line   116 file /fsx/users/francis/anaconda3/envs/poltype-dev/share/psi4/basis/heavy-aug-cc-pvdz-jkfit.gbs 

  ==> Pre-Iterations <==

   -------------------------------------------------------
    Irrep   Nso     Nmo     Nalpha   Nbeta   Ndocc  Nsocc
   -------------------------------------------------------
     A        322     322       0       0       0       0
   -------------------------------------------------------
    Total     322     322      62      62      62       0
   -------------------------------------------------------

  ==> Integral Setup <==

  ==> DiskDFJK: Density-Fitted J/K Matrices <==

    J tasked:                  Yes
    K tasked:                  Yes
    wK tasked:                 Yes
    Omega:               2.000E-01
    OpenMP threads:              8
    Integrals threads:           8
    Memory [MiB]:             8467
    Algorithm:                Core
    Integral Cache:           NONE
    Schwarz Cutoff:          1E-12
    Fitting Condition:       1E-10

   => Auxiliary Basis Set <=

  Basis Set: (6-31+G* AUX)
    Blend: HEAVY-AUG-CC-PVDZ-JKFIT
    Number of shells: 523
    Number of basis function: 1840
    Number of Cartesian functions: 1840
    Spherical Harmonics?: false
    Max angular momentum: 3

  Cached 100.0% of DFT collocation blocks in 2.907 [GiB].

  Minimum eigenvalue in the overlap matrix is 4.8093573626E-07.
  Using Symmetric Orthogonalization.

  SCF Guess: Superposition of Atomic Densities via on-the-fly atomic UHF.

  ==> Iterations <==

                           Total Energy        Delta E     RMS |[F,P]|

   @DF-RKS iter SAD: -1187.19604803325069   -1.18720e+03   0.00000e+00 
   @DF-RKS iter   1: -1187.53129802789999   -3.35250e-01   3.40537e-03 DIIS
   @DF-RKS iter   2: -1187.54129019142079   -9.99216e-03   3.71136e-03 DIIS
   @DF-RKS iter   3: -1188.08348445061142   -5.42194e-01   7.81214e-04 DIIS
   @DF-RKS iter   4: -1188.10748867811299   -2.40042e-02   2.69663e-04 DIIS
   @DF-RKS iter   5: -1188.11106272323900   -3.57405e-03   7.27946e-05 DIIS
   @DF-RKS iter   6: -1188.11146732636507   -4.04603e-04   2.38959e-05 DIIS
   @DF-RKS iter   7: -1188.11152887613343   -6.15498e-05   1.03827e-05 DIIS
   @DF-RKS iter   8: -1188.11154555332723   -1.66772e-05   3.92712e-06 DIIS
   @DF-RKS iter   9: -1188.11154842281007   -2.86948e-06   2.15105e-06 DIIS
   @DF-RKS iter  10: -1188.11154877781814   -3.55008e-07   7.23250e-07 DIIS
   @DF-RKS iter  11: -1188.11154882811957   -5.03014e-08   3.32091e-07 DIIS
   @DF-RKS iter  12: -1188.11154883868608   -1.05665e-08   1.51546e-07 DIIS
   @DF-RKS iter  13: -1188.11154884126881   -2.58274e-09   5.86686e-08 DIIS
   @DF-RKS iter  14: -1188.11154884157645   -3.07637e-10   2.46521e-08 DIIS
   @DF-RKS iter  15: -1188.11154884163670   -6.02540e-11   1.20057e-08 DIIS
   @DF-RKS iter  16: -1188.11154884164762   -1.09139e-11   6.40213e-09 DIIS
  Energy and wave function converged.


  ==> Post-Iterations <==

    Orbital Energies [Eh]
    ---------------------

    Doubly Occupied:                                                      

       1A    -89.086012     2A    -24.873708     3A    -24.871915  
       4A    -19.304481     5A    -19.293174     6A    -14.542114  
       7A    -10.509940     8A    -10.457918     9A    -10.434877  
      10A    -10.410864    11A    -10.395429    12A    -10.358763  
      13A    -10.355323    14A    -10.352370    15A    -10.352293  
      16A    -10.347648    17A     -8.103354    18A     -6.054173  
      19A     -6.049460    20A     -6.043513    21A     -1.381161  
      22A     -1.324822    23A     -1.188482    24A     -1.174253  
      25A     -1.091491    26A     -0.998821    27A     -0.939415  
      28A     -0.903500    29A     -0.885931    30A     -0.869429  
      31A     -0.798441    32A     -0.763304    33A     -0.750198  
      34A     -0.744390    35A     -0.693093    36A     -0.678400  
      37A     -0.665428    38A     -0.644106    39A     -0.628259  
      40A     -0.589758    41A     -0.584418    42A     -0.564275  
      43A     -0.561927    44A     -0.555557    45A     -0.553594  
      46A     -0.550686    47A     -0.547519    48A     -0.534892  
      49A     -0.521150    50A     -0.515952    51A     -0.506454  
      52A     -0.498944    53A     -0.490696    54A     -0.485897  
      55A     -0.474557    56A     -0.439218    57A     -0.429243  
      58A     -0.395559    59A     -0.394767    60A     -0.367145  
      61A     -0.339602    62A     -0.317278  

    Virtual:                                                              

      63A     -0.046014    64A      0.011626    65A      0.039003  
      66A      0.047593    67A      0.051908    68A      0.065284  
      69A      0.066517    70A      0.074938    71A      0.080198  
      72A      0.082615    73A      0.092600    74A      0.096218  
      75A      0.105231    76A      0.111058    77A      0.114711  
      78A      0.117493    79A      0.118587    80A      0.130050  
      81A      0.137844    82A      0.138708    83A      0.144628  
      84A      0.147007    85A      0.153330    86A      0.164777  
      87A      0.170313    88A      0.172693    89A      0.176556  
      90A      0.180180    91A      0.185849    92A      0.189561  
      93A      0.192159    94A      0.197816    95A      0.203067  
      96A      0.205336    97A      0.210781    98A      0.217462  
      99A      0.221454   100A      0.225596   101A      0.232434  
     102A      0.236664   103A      0.242295   104A      0.244038  
     105A      0.247263   106A      0.251462   107A      0.257368  
     108A      0.261234   109A      0.269446   110A      0.273485  
     111A      0.276336   112A      0.284302   113A      0.287358  
     114A      0.289356   115A      0.296305   116A      0.300470  
     117A      0.310638   118A      0.312819   119A      0.324140  
     120A      0.327305   121A      0.329124   122A      0.334169  
     123A      0.341675   124A      0.344618   125A      0.354995  
     126A      0.360122   127A      0.367696   128A      0.376959  
     129A      0.379971   130A      0.383489   131A      0.392034  
     132A      0.396672   133A      0.399800   134A      0.411541  
     135A      0.412266   136A      0.421948   137A      0.426370  
     138A      0.438820   139A      0.445073   140A      0.450048  
     141A      0.458148   142A      0.470131   143A      0.477365  
     144A      0.483659   145A      0.503378   146A      0.511237  
     147A      0.525064   148A      0.529761   149A      0.542359  
     150A      0.554902   151A      0.574521   152A      0.581042  
     153A      0.585446   154A      0.596731   155A      0.609201  
     156A      0.627902   157A      0.654389   158A      0.664999  
     159A      0.679726   160A      0.695815   161A      0.727286  
     162A      0.740593   163A      0.752442   164A      0.765091  
     165A      0.770012   166A      0.771564   167A      0.788437  
     168A      0.797647   169A      0.804476   170A      0.821001  
     171A      0.823321   172A      0.854185   173A      0.856253  
     174A      0.868213   175A      0.878423   176A      0.883253  
     177A      0.898127   178A      0.915920   179A      0.921841  
     180A      0.931689   181A      0.944310   182A      0.965555  
     183A      0.977738   184A      0.983344   185A      1.005967  
     186A      1.023805   187A      1.047103   188A      1.058419  
     189A      1.060805   190A      1.078761   191A      1.091387  
     192A      1.104947   193A      1.130853   194A      1.150112  
     195A      1.156308   196A      1.170053   197A      1.201621  
     198A      1.201920   199A      1.209566   200A      1.225106  
     201A      1.228810   202A      1.253879   203A      1.269258  
     204A      1.283226   205A      1.294453   206A      1.322204  
     207A      1.323005   208A      1.335717   209A      1.352527  
     210A      1.384231   211A      1.403840   212A      1.406678  
     213A      1.416108   214A      1.419230   215A      1.443090  
     216A      1.446791   217A      1.450751   218A      1.464880  
     219A      1.469316   220A      1.484186   221A      1.503925  
     222A      1.512598   223A      1.526395   224A      1.530783  
     225A      1.544873   226A      1.590950   227A      1.621123  
     228A      1.650795   229A      1.663982   230A      1.671630  
     231A      1.709685   232A      1.749493   233A      1.753908  
     234A      1.757761   235A      1.759014   236A      1.760795  
     237A      1.769267   238A      1.781515   239A      1.787824  
     240A      1.820563   241A      1.839114   242A      1.864185  
     243A      1.873899   244A      1.895218   245A      1.899433  
     246A      1.910459   247A      1.919713   248A      1.945370  
     249A      1.963260   250A      1.967497   251A      1.971327  
     252A      2.004220   253A      2.039391   254A      2.049724  
     255A      2.056079   256A      2.060545   257A      2.079994  
     258A      2.090739   259A      2.099184   260A      2.112430  
     261A      2.145858   262A      2.152834   263A      2.166732  
     264A      2.200164   265A      2.205902   266A      2.210522  
     267A      2.246607   268A      2.256036   269A      2.260367  
     270A      2.274265   271A      2.302196   272A      2.307611  
     273A      2.314211   274A      2.347106   275A      2.350288  
     276A      2.368078   277A      2.381811   278A      2.403550  
     279A      2.462401   280A      2.466243   281A      2.510834  
     282A      2.514030   283A      2.568765   284A      2.625856  
     285A      2.657358   286A      2.676171   287A      2.705916  
     288A      2.726694   289A      2.737069   290A      2.769671  
     291A      2.775645   292A      2.825154   293A      2.828577  
     294A      2.850258   295A      2.899044   296A      2.951917  
     297A      2.959566   298A      3.031300   299A      3.119781  
     300A      3.155194   301A      3.213312   302A      3.236706  
     303A      3.338171   304A      3.379723   305A      3.462827  
     306A      3.485818   307A      4.035296   308A      4.279939  
     309A      4.319210   310A      4.333444   311A      4.360911  
     312A      4.377393   313A      4.416177   314A      4.469783  
     315A      4.486017   316A      4.521332   317A      4.580684  
     318A      4.779576   319A      4.835859   320A      5.110491  
     321A      5.703110   322A      7.136060  

    Final Occupation by Irrep:
              A 
    DOCC [    62 ]

  @DF-RKS Final Energy: -1188.11154884164762

   => Energetics <=

    Nuclear Repulsion Energy =           1172.7437949740633485
    One-Electron Energy =               -3959.5716839301012442
    Two-Electron Energy =                1688.1677734413858616
    DFT Exchange-Correlation Energy =     -89.4381191520287189
    Empirical Dispersion Energy =          -0.0133141749667798
    VV10 Nonlocal Energy =                  0.0000000000000000
    Total Energy =                      -1188.1115488416476182

Computation Completed


Properties will be evaluated at   0.000000,   0.000000,   0.000000 [a0]

Properties computed using the SCF density matrix

  Nuclear Dipole Moment: [e a0]
     X:    26.6575      Y:    -0.6246      Z:    -4.1275

  Electronic Dipole Moment: [e a0]
     X:   -23.3513      Y:     0.2799      Z:     3.6442

  Dipole Moment: [e a0]
     X:     3.3063      Y:    -0.3447      Z:    -0.4832     Total:     3.3591

  Dipole Moment: [D]
     X:     8.4037      Y:    -0.8763      Z:    -1.2283     Total:     8.5381


*** tstop() called on cpu-spot-dy-c5n2xlarge-1 at Tue Jun 22 03:19:16 2021
Module time:
	user time   =     569.21 seconds =       9.49 minutes
	system time =      10.22 seconds =       0.17 minutes
	total time  =         76 seconds =       1.27 minutes
Total time:
	user time   =     569.21 seconds =       9.49 minutes
	system time =      10.22 seconds =       0.17 minutes
	total time  =         76 seconds =       1.27 minutes

*** tstart() called on cpu-spot-dy-c5n2xlarge-1
*** at Tue Jun 22 03:19:16 2021


         ------------------------------------------------------------
                                   SCF GRAD                          
                          Rob Parrish, Justin Turney,                
                       Andy Simmonett, and Alex Sokolov              
         ------------------------------------------------------------

  ==> Geometry <==

    Molecular point group: c1
    Full point group: C1

    Geometry (in Angstrom), charge = 0, multiplicity = 1:

       Center              X                  Y                   Z               Mass       
    ------------   -----------------  -----------------  -----------------  -----------------
         N           -1.023674474289    -1.491045481193     0.208439583446    14.003074004430
         C           -2.335439474289    -1.158524481193     0.422131583446    12.000000000000
         C           -2.659651474289     0.371729518807     0.445042583446    12.000000000000
         F           -3.651825474289     0.599528518807    -0.482632416554    18.998403162730
         F           -3.159657474289     0.667745518807     1.693113583446    18.998403162730
         C           -1.480318474289     1.362802518807     0.150107583446    12.000000000000
         C           -0.132490474289     0.783310518807    -0.053668416554    12.000000000000
         C            0.973364525711     1.626064518807    -0.297970416554    12.000000000000
         C            2.259029525711     1.099408518807    -0.481873416554    12.000000000000
         C            2.475127525711    -0.306298481193    -0.440335416554    12.000000000000
         C            1.362619525711    -1.145466481193    -0.202751416554    12.000000000000
         C            0.071592525711    -0.622652481193    -0.013592416554    12.000000000000
         S            4.027834525711    -1.163961481193    -0.610956416554    31.972071174400
         C            5.377902525711     0.048588518807    -0.724246416554    12.000000000000
         O           -3.174901474289    -2.031146481193     0.590755583446    15.994914619570
         O           -1.678831474289     2.573222518807     0.108132583446    15.994914619570
         H            3.071881525711     1.800900518807    -0.655179416554     1.007825032230
         H            0.802180525711     2.702706518807    -0.332345416554     1.007825032230
         H           -0.877916474289    -2.491356481193     0.212373583446     1.007825032230
         H            1.508203525711    -2.226008481193    -0.155158416554     1.007825032230
         H            5.005029525711     1.071690518807    -0.774992416554     1.007825032230
         H            6.016422525711    -0.058410481193     0.158313583446     1.007825032230
         H            5.963926525711    -0.165195481193    -1.623447416554     1.007825032230

  Nuclear repulsion = 1172.743794974063348

  ==> Basis Set <==

  Basis Set: 6-31+G*
    Blend: 6-31+G*
    Number of shells: 144
    Number of basis function: 322
    Number of Cartesian functions: 322
    Spherical Harmonics?: false
    Max angular momentum: 2

  ==> DFJKGrad: Density-Fitted SCF Gradients <==

    Gradient:                    1
    J tasked:                  Yes
    K tasked:                  Yes
    wK tasked:                 Yes
    Omega:               2.000E-01
    OpenMP threads:              8
    Integrals threads:           8
    Memory [MiB]:            11444
    Schwarz Cutoff:          0E+00
    Fitting Condition:       1E-10

   => Auxiliary Basis Set <=

  Basis Set: (6-31+G* AUX)
    Blend: HEAVY-AUG-CC-PVDZ-JKFIT
    Number of shells: 523
    Number of basis function: 1840
    Number of Cartesian functions: 1840
    Spherical Harmonics?: false
    Max angular momentum: 3

  ==> DFT Potential <==

   => Composite Functional: WB97X-D <= 

    wB97X-D Hyb-GGA Exchange-Correlation Functional

    J.-D. Chai and M. Head-Gordon, Phys. Chem. Chem. Phys. 10, 6615 (2008)

    Deriv               =              1
    GGA                 =           TRUE
    Meta                =          FALSE

    Exchange Hybrid     =           TRUE
    MP2 Hybrid          =          FALSE

   => Exchange-Correlation Functionals <=

    1.0000   wB97D range-separated functional

   => Exact (HF) Exchange <=

    0.7780            HF,LR [omega = 0.2000]
    0.2220               HF 

   => Molecular Quadrature <=

    Radial Scheme          =       TREUTLER
    Pruning Scheme         =           FLAT
    Nuclear Scheme         =       TREUTLER

    BS radius alpha        =              1
    Pruning alpha          =              1
    Radial Points          =             75
    Spherical Points       =            302
    Total Points           =         520858
    Total Blocks           =           3891
    Max Points             =            256
    Max Functions          =            288


  -Total Gradient:
     Atom            X                  Y                   Z
    ------   -----------------  -----------------  -----------------
       1       -0.009627080917    -0.010923617645     0.001542701637
       2        0.007790792897     0.011536421805    -0.002144827562
       3        0.012997132474    -0.003981303975    -0.000043897935
       4       -0.013536727989     0.003214696935    -0.013712619362
       5       -0.006085459666     0.003715637275     0.015925018366
       6       -0.008740764454    -0.021557320725     0.002104987086
       7        0.000305313759     0.007422576014     0.000392963903
       8       -0.004415061934     0.013738353862    -0.000999230165
       9        0.006663710563     0.004356428289    -0.000488112263
      10        0.009306948826    -0.011066206378    -0.005480794330
      11        0.003686227043    -0.002163078508    -0.000016849784
      12       -0.001959461172    -0.006035851703     0.002005365020
      13        0.008199688718     0.001603862845     0.001309612115
      14        0.001097386621    -0.001338849698    -0.001776888321
      15       -0.008379885118    -0.021655151591     0.002238514847
      16        0.004579341651     0.028978629354    -0.002364757299
      17        0.000564507612     0.003251814084     0.000033198589
      18       -0.000967776064     0.003931919586    -0.000207711067
      19       -0.004158545095     0.001661682690     0.000529383603
      20        0.000279055865    -0.002521047423     0.000221525201
      21       -0.000505011841    -0.000387952864     0.000568603884
      22        0.001518427163    -0.001362785141     0.001301104167
      23        0.002114553025    -0.000682310345    -0.001095921421


*** tstop() called on cpu-spot-dy-c5n2xlarge-1 at Tue Jun 22 03:19:40 2021
Module time:
	user time   =     148.38 seconds =       2.47 minutes
	system time =       3.59 seconds =       0.06 minutes
	total time  =         24 seconds =       0.40 minutes
Total time:
	user time   =     717.60 seconds =      11.96 minutes
	system time =      13.81 seconds =       0.23 minutes
	total time  =        100 seconds =       1.67 minutes

			-----------------------------------------
			 OPTKING 2.0: for geometry optimizations 
			  - R.A. King,  Bethel University        
			-----------------------------------------
	At level 1: Red. Int., RFO, no backsteps, dynamic trust

	Internal coordinates to be generated automatically.
	Detected frag 1 with atoms:  1 2 3 4 5 6 7 8 9 10 11 12 13 14 15 16 17 18 19 20
	 21 22 23
	---Fragment 1 Bond Connectivity---
	 1 : 2 12 19
	 2 : 1 3 15
	 3 : 2 4 5 6
	 4 : 3
	 5 : 3
	 6 : 3 7 16
	 7 : 6 8 12
	 8 : 7 9 18
	 9 : 8 10 17
	 10 : 9 11 13
	 11 : 10 12 20
	 12 : 1 7 11
	 13 : 10 14
	 14 : 13 21 22 23
	 15 : 2
	 16 : 6
	 17 : 9
	 18 : 8
	 19 : 1
	 20 : 11
	 21 : 14
	 22 : 14
	 23 : 14

	Assuming in current code that numbering for constraints corresponds to unified fragment.
	Frozen dihedral atom list: 
	    11    10    13    14
	     9    10    13    14
	    21    14    13    10
	---Fragment 1 Geometry and Gradient---
	 N          -1.9344643980       -2.8176676001        0.3938937264
	 C          -4.4133409890       -2.1892939791        0.7977130816
	 C          -5.0260128756        0.7024669833        0.8410085969
	 F          -6.9009500044        1.1329447049       -0.9120430866
	 F          -5.9708872767        1.2618561520        3.1995209720
	 C          -2.7973964949        2.5753235236        0.2836622221
	 C          -0.2503707106        1.4802423517       -0.1014186089
	 C           1.8393923738        3.0728166029       -0.5630824808
	 C           4.2689471129        2.0775810005       -0.9106087844
	 C           4.6773131492       -0.5788202421       -0.8321133406
	 C           2.5749777168       -2.1646179353       -0.3831446488
	 C           0.1352902662       -1.1766426608       -0.0256859447
	 S           7.6115041323       -2.1995684200       -1.1545403019
	 C          10.1627629030        0.0918189934       -1.3686273746
	 O          -5.9996942617       -3.8383105701        1.1163662598
	 O          -3.1725316972        4.8626858204        0.2043409680
	 H           5.8050147734        3.4032087597       -1.2381096603
	 H           1.5159014968        5.1073751180       -0.6280418163
	 H          -1.6590216974       -4.7079814303        0.4013279090
	 H           2.8500916050       -4.2065463824       -0.2932069133
	 H           9.4581350534        2.0252015718       -1.4645234166
	 H          11.3693908286       -0.1103798123        0.2991693147
	 H          11.2701877659       -0.3121742166       -3.0678709964
	            -0.0096270809       -0.0109236176        0.0015427016
	             0.0077907929        0.0115364218       -0.0021448276
	             0.0129971325       -0.0039813040       -0.0000438979
	            -0.0135367280        0.0032146969       -0.0137126194
	            -0.0060854597        0.0037156373        0.0159250184
	            -0.0087407645       -0.0215573207        0.0021049871
	             0.0003053138        0.0074225760        0.0003929639
	            -0.0044150619        0.0137383539       -0.0009992302
	             0.0066637106        0.0043564283       -0.0004881123
	             0.0093069488       -0.0110662064       -0.0054807943
	             0.0036862270       -0.0021630785       -0.0000168498
	            -0.0019594612       -0.0060358517        0.0020053650
	             0.0081996887        0.0016038628        0.0013096121
	             0.0010973866       -0.0013388497       -0.0017768883
	            -0.0083798851       -0.0216551516        0.0022385148
	             0.0045793417        0.0289786294       -0.0023647573
	             0.0005645076        0.0032518141        0.0000331986
	            -0.0009677761        0.0039319196       -0.0002077111
	            -0.0041585451        0.0016616827        0.0005293836
	             0.0002790559       -0.0025210474        0.0002215252
	            -0.0005050118       -0.0003879529        0.0005686039
	             0.0015184272       -0.0013627851        0.0013011042
	             0.0021145530       -0.0006823103       -0.0010959214

	Previous optimization step data not found.  Starting new optimization.

	---Fragment 1 Intrafragment Coordinates---
	 - Coordinate -           - BOHR/RAD -       - ANG/DEG -
	 R(1,2)           =         2.588967	       1.370023
	 R(1,12)          =         2.674490	       1.415279
	 R(1,19)          =         1.910291	       1.010882
	 R(2,3)           =         2.956268	       1.564390
	 R(2,15)          =         2.310262	       1.222538
	 R(3,4)           =         2.602670	       1.377274
	 R(3,5)           =         2.601593	       1.376704
	 R(3,6)           =         2.963943	       1.568451
	 R(6,7)           =         2.799077	       1.481208
	 R(6,16)          =         2.319277	       1.227308
	 R(7,8)           =         2.667684	       1.411677
	 R(7,12)          =         2.685797	       1.421263
	 R(8,9)           =         2.648397	       1.401471
	 R(8,18)          =         2.061139	       1.090708
	 R(9,10)          =         2.688753	       1.422827
	 R(9,17)          =         2.055249	       1.087591
	 R(10,11)         =         2.671356	       1.413621
	 R(10,13)         =         3.367530	       1.782020
	 R(11,12)         =         2.656303	       1.405655
	 R(11,20)         =         2.062340	       1.091344
	 R(13,14)         =         3.435871	       1.818185
	 R(14,21)         =         2.060016	       1.090113
	 R(14,22)         =         2.068425	       1.094563
	 R(14,23)         =         2.068098	       1.094390
	 B(1,2,3)         =         2.024317	     115.984794
	 B(1,2,15)        =         2.101021	     120.379651
	 B(1,12,7)        =         2.094716	     120.018407
	 B(1,12,11)       =         2.098645	     120.243520
	 B(2,1,12)        =         2.235118	     128.062837
	 B(2,1,19)        =         1.958026	     112.186612
	 B(2,3,4)         =         1.876770	     107.531023
	 B(2,3,5)         =         1.874307	     107.389899
	 B(2,3,6)         =         2.048238	     117.355411
	 B(3,2,15)        =         2.157811	     123.633470
	 B(3,6,7)         =         2.052017	     117.571889
	 B(3,6,16)        =         2.103655	     120.530536
	 B(4,3,5)         =         1.889591	     108.265594
	 B(4,3,6)         =         1.886514	     108.089267
	 B(5,3,6)         =         1.883564	     107.920279
	 B(6,7,8)         =         2.097945	     120.203415
	 B(6,7,12)        =         2.110406	     120.917355
	 B(7,6,16)        =         2.127420	     121.892179
	 B(7,8,9)         =         2.114139	     121.131222
	 B(7,8,18)        =         2.062123	     118.150952
	 B(7,12,11)       =         2.089806	     119.737088
	 B(8,7,12)        =         2.074823	     118.878628
	 B(8,9,10)        =         2.102224	     120.448575
	 B(8,9,17)        =         2.053480	     117.655721
	 B(9,8,18)        =         2.106894	     120.716128
	 B(9,10,11)       =         2.062203	     118.155514
	 B(9,10,13)       =         2.220607	     127.231433
	 B(10,9,17)       =         2.127481	     121.895703
	 B(10,11,12)      =         2.123087	     121.643927
	 B(10,11,20)      =         2.083001	     119.347178
	 B(10,13,14)      =         1.909199	     109.389021
	 B(11,10,13)      =         1.999955	     114.588975
	 B(12,1,19)       =         2.090004	     119.748404
	 B(12,11,20)      =         2.077053	     119.006372
	 B(13,14,21)      =         1.955001	     112.013310
	 B(13,14,22)      =         1.894130	     108.525649
	 B(13,14,23)      =         1.894978	     108.574254
	 B(21,14,22)      =         1.905847	     109.197006
	 B(21,14,23)      =         1.905246	     109.162548
	 B(22,14,23)      =         1.908193	     109.331410
	 D(1,2,3,4)       =         2.183399	     125.099569
	 D(1,2,3,5)       =        -2.069640	    -118.581617
	 D(1,2,3,6)       =         0.053941	       3.090576
	 D(1,12,7,6)      =         0.012544	       0.718704
	 D(1,12,7,8)      =        -3.124131	    -178.999546
	 D(1,12,11,10)    =         3.130071	     179.339840
	 D(1,12,11,20)    =        -0.021676	      -1.241957
	 D(2,1,12,7)      =        -0.017438	      -0.999145
	 D(2,1,12,11)     =         3.130472	     179.362806
	 D(2,3,6,7)       =        -0.058023	      -3.324472
	 D(2,3,6,16)      =         3.098041	     177.504695
	 D(3,2,1,12)      =        -0.017645	      -1.011008
	 D(3,2,1,19)      =         3.133394	     179.530226
	 D(3,6,7,8)       =        -3.121084	    -178.824922
	 D(3,6,7,12)      =         0.025491	       1.460545
	 D(4,3,2,15)      =        -0.967354	     -55.425279
	 D(4,3,6,7)       =        -2.182446	    -125.044944
	 D(4,3,6,16)      =         0.973618	      55.784223
	 D(5,3,2,15)      =         1.062793	      60.893535
	 D(5,3,6,7)       =         2.060756	     118.072624
	 D(5,3,6,16)      =        -1.066365	     -61.098209
	 D(6,3,2,15)      =        -3.096812	    -177.434272
	 D(6,7,8,9)       =         3.131756	     179.436411
	 D(6,7,8,18)      =        -0.001618	      -0.092696
	 D(6,7,12,11)     =        -3.135334	    -179.641405
	 D(7,8,9,10)      =         0.012106	       0.693620
	 D(7,8,9,17)      =        -3.129626	    -179.314357
	 D(7,12,1,19)     =         3.114080	     178.423622
	 D(7,12,11,10)    =        -0.005223	      -0.299230
	 D(7,12,11,20)    =         3.126216	     179.118973
	 D(8,7,6,16)      =         0.005827	       0.333884
	 D(8,7,12,11)     =         0.011176	       0.640346
	 D(8,9,10,11)     =        -0.005712	      -0.327283
	 D(8,9,10,13)     =        -3.114309	    -178.436786
	 D(9,8,7,12)      =        -0.014718	      -0.843274
	 D(9,10,11,12)    =         0.002377	       0.136192
	 D(9,10,11,20)    =        -3.129028	    -179.280075
	*D(9,10,13,14)    =         0.077638	       4.448349
	 D(10,9,8,18)     =        -3.137916	    -179.789322
	*D(10,13,14,21)   =        -0.104884	      -6.009435
	 D(10,13,14,22)   =         2.000555	     114.623375
	 D(10,13,14,23)   =        -2.210140	    -126.631708
	 D(11,10,9,17)    =         3.136026	     179.681040
	*D(11,10,13,14)   =        -3.031962	    -173.718651
	 D(11,12,1,19)    =        -0.021196	      -1.214427
	 D(12,1,2,15)     =         3.132788	     179.495530
	 D(12,7,6,16)     =        -3.130783	    -179.380649
	 D(12,7,8,18)     =         3.135093	     179.627618
	 D(12,11,10,13)   =         3.115080	     178.480942
	 D(13,10,9,17)    =         0.027428	       1.571537
	 D(13,10,11,20)   =        -0.016325	      -0.935326
	 D(15,2,1,19)     =         0.000642	       0.036764
	 D(17,9,8,18)     =         0.003538	       0.202701

	Current energy   :     -1188.1115488416

	Generating empirical Hessian (Schlegel '84) for each fragment.
	Taking RFO optimization step.
	Going to follow RFO solution 1.
	Using RFO vector 1.
	Norm of target step-size    0.19261
	Projected energy change by RFO approximation:        -0.0115601970

	Back-transformation to cartesian coordinates...
	Could not converge backtransformation.
	Using first guess instead.

	Back-transformation to cartesian coordinates to adjust frozen coordinates...
	Successfully converged to displaced geometry.

	--- Internal Coordinate Step in ANG or DEG, aJ/ANG or AJ/DEG ---
	 ---------------------------------------------------------------------------
	   Coordinate                Previous        Force       Change         New 
	   ----------                --------       ------       ------       ------
	    1 R(1,2)          =      1.370023    -0.007759    -0.000682     1.369341
	    2 R(1,12)         =      1.415279    -0.132595    -0.012240     1.403039
	    3 R(1,19)         =      1.010882     0.018666     0.009809     1.020691
	    4 R(2,3)          =      1.564390    -0.094722    -0.010243     1.554147
	    5 R(2,15)         =      1.222538    -0.177371    -0.002804     1.219734
	    6 R(3,4)          =      1.377274    -0.161005    -0.013377     1.363896
	    7 R(3,5)          =      1.376704    -0.143909    -0.010031     1.366672
	    8 R(3,6)          =      1.568451    -0.091381    -0.012361     1.556090
	    9 R(6,7)          =      1.481208    -0.080948    -0.014232     1.466975
	   10 R(6,16)         =      1.227308    -0.230225    -0.006933     1.220375
	   11 R(7,8)          =      1.411677    -0.106170    -0.008081     1.403596
	   12 R(7,12)         =      1.421263    -0.118446    -0.007761     1.413502
	   13 R(8,9)          =      1.401471    -0.144580    -0.019620     1.381852
	   14 R(8,18)         =      1.090708    -0.033399     0.002032     1.092739
	   15 R(9,10)         =      1.422827    -0.148793    -0.011341     1.411485
	   16 R(9,17)         =      1.087591    -0.020563     0.002700     1.090291
	   17 R(10,11)        =      1.413621    -0.113174    -0.009084     1.404536
	   18 R(10,13)        =      1.782020    -0.096478    -0.020499     1.761521
	   19 R(11,12)        =      1.405655    -0.139755    -0.018771     1.386884
	   20 R(11,20)        =      1.091344    -0.020839     0.004332     1.095675
	   21 R(13,14)        =      1.818185    -0.004719     0.014910     1.833095
	   22 R(14,21)        =      1.090113     0.001754     0.008660     1.098774
	   23 R(14,22)        =      1.094563    -0.016944     0.005072     1.099636
	   24 R(14,23)        =      1.094390    -0.017662     0.003074     1.097464
	   25 B(1,2,3)        =    115.984794    -0.000061    -0.240061   115.744733
	   26 B(1,2,15)       =    120.379651     0.000817     2.088150   122.467801
	   27 B(1,12,7)       =    120.018407     0.000214     0.817772   120.836178
	   28 B(1,12,11)      =    120.243520    -0.000400    -1.379965   118.863555
	   29 B(2,1,12)       =    128.062837    -0.000193    -0.920038   127.142800
	   30 B(2,1,19)       =    112.186612     0.000384     1.433659   113.620271
	   31 B(2,3,4)        =    107.531023    -0.000021    -0.220665   107.310358
	   32 B(2,3,5)        =    107.389899    -0.000024    -0.336882   107.053017
	   33 B(2,3,6)        =    117.355411     0.000069     0.905334   118.260745
	   34 B(3,2,15)       =    123.633470    -0.000756    -1.846822   121.786648
	   35 B(3,6,7)        =    117.571889    -0.000146    -0.685037   116.886852
	   36 B(3,6,16)       =    120.530536    -0.000747    -1.784290   118.746246
	   37 B(4,3,5)        =    108.265594    -0.000025     0.148305   108.413898
	   38 B(4,3,6)        =    108.089267     0.000013    -0.155840   107.933427
	   39 B(5,3,6)        =    107.920279    -0.000018    -0.370089   107.550190
	   40 B(6,7,8)        =    120.203415    -0.000032    -0.321396   119.882019
	   41 B(6,7,12)       =    120.917355     0.000118     0.131173   121.048528
	   42 B(7,6,16)       =    121.892179     0.000893     2.472651   124.364830
	   43 B(7,8,9)        =    121.131222     0.000073    -0.102471   121.028750
	   44 B(7,8,18)       =    118.150952    -0.000010     0.407529   118.558481
	   45 B(7,12,11)      =    119.737088     0.000186     0.562949   120.300038
	   46 B(8,7,12)       =    118.878628    -0.000087     0.190619   119.069247
	   47 B(8,9,10)       =    120.448575    -0.000222    -0.818486   119.630090
	   48 B(8,9,17)       =    117.655721     0.000278     0.785303   118.441024
	   49 B(9,8,18)       =    120.716128    -0.000063    -0.303437   120.412690
	   50 B(9,10,11)      =    118.155514     0.000459     1.766101   119.921616
	   51 B(9,10,13)      =    127.231433    -0.000462    -1.406114   125.825318
	   52 B(10,9,17)      =    121.895703    -0.000056     0.032553   121.928255
	   53 B(10,11,12)     =    121.643927    -0.000409    -1.598792   120.045135
	   54 B(10,11,20)     =    119.347178     0.000195     0.987023   120.334201
	   55 B(10,13,14)     =    109.389021    -0.001449    -4.477609   104.911412
	   56 B(11,10,13)     =    114.588975     0.000003    -0.360924   114.228051
	   57 B(12,1,19)      =    119.748404    -0.000190    -0.513593   119.234811
	   58 B(12,11,20)     =    119.006372     0.000214     0.614232   119.620604
	   59 B(13,14,21)     =    112.013310     0.000040     0.537068   112.550378
	   60 B(13,14,22)     =    108.525649     0.000079     0.280848   108.806497
	   61 B(13,14,23)     =    108.574254    -0.000063    -0.426766   108.147488
	   62 B(21,14,22)     =    109.197006    -0.000088    -0.548677   108.648329
	   63 B(21,14,23)     =    109.162548    -0.000039    -0.580576   108.581973
	   64 B(22,14,23)     =    109.331410     0.000075     0.764373   110.095783
	   65 D(1,2,3,4)      =    125.099569     0.000008     0.138150   125.237719
	   66 D(1,2,3,5)      =   -118.581617    -0.000004     0.030553  -118.551064
	   67 D(1,2,3,6)      =      3.090576    -0.000003    -0.108926     2.981650
	   68 D(1,12,7,6)     =      0.718704    -0.000003    -0.332816     0.385888
	   69 D(1,12,7,8)     =   -178.999546    -0.000007    -0.780024  -179.779570
	   70 D(1,12,11,10)   =    179.339840     0.000001     0.107085   179.446925
	   71 D(1,12,11,20)   =     -1.241957     0.000005     0.599538    -0.642419
	   72 D(2,1,12,7)     =     -0.999145     0.000003     0.330540    -0.668605
	   73 D(2,1,12,11)    =    179.362806    -0.000002    -0.204976   179.157830
	   74 D(2,3,6,7)      =     -3.324472     0.000003     0.096573    -3.227898
	   75 D(2,3,6,16)     =    177.504695    -0.000000    -0.231927   177.272768
	   76 D(3,2,1,12)     =     -1.011008     0.000000    -0.077263    -1.088271
	   77 D(3,2,1,19)     =    179.530226    -0.000000    -0.079997   179.450229
	   78 D(3,6,7,8)      =   -178.824922     0.000004     0.565646  -178.259276
	   79 D(3,6,7,12)     =      1.460545     0.000000     0.113389     1.573934
	   80 D(4,3,2,15)     =    -55.425279     0.000010     0.341563   -55.083716
	   81 D(4,3,6,7)      =   -125.044944    -0.000004    -0.123504  -125.168447
	   82 D(4,3,6,16)     =     55.784223    -0.000007    -0.452004    55.332219
	   83 D(5,3,2,15)     =     60.893535    -0.000002     0.233966    61.127501
	   84 D(5,3,6,7)      =    118.072624     0.000004    -0.021464   118.051160
	   85 D(5,3,6,16)     =    -61.098209     0.000000    -0.349965   -61.448174
	   86 D(6,3,2,15)     =   -177.434272    -0.000001     0.094487  -177.339785
	   87 D(6,7,8,9)      =    179.436411     0.000002     0.221718   179.658129
	   88 D(6,7,8,18)     =     -0.092696    -0.000001    -0.147893    -0.240589
	   89 D(6,7,12,11)    =   -179.641405     0.000002     0.203346  -179.438059
	   90 D(7,8,9,10)     =      0.693620    -0.000003    -0.404853     0.288767
	   91 D(7,8,9,17)     =   -179.314357    -0.000006    -0.680152  -179.994509
	   92 D(7,12,1,19)    =    178.423622     0.000004     0.342369   178.765991
	   93 D(7,12,11,10)   =     -0.299230    -0.000004    -0.426455    -0.725684
	   94 D(7,12,11,20)   =    179.118973    -0.000000     0.065999   179.184972
	   95 D(8,7,6,16)     =      0.333884     0.000004     0.875059     1.208943
	   96 D(8,7,12,11)    =      0.640346    -0.000002    -0.243863     0.396483
	   97 D(8,9,10,11)    =     -0.327283    -0.000003    -0.285086    -0.612368
	   98 D(8,9,10,13)    =   -178.436786    -0.000002    -0.246931  -178.683717
	   99 D(9,8,7,12)     =     -0.843274     0.000006     0.664891    -0.178383
	  100 D(9,10,11,12)   =      0.136192     0.000007     0.696741     0.832933
	  101 D(9,10,11,20)   =   -179.280075     0.000003     0.202996  -179.077079
	  102 *D(9,10,13,14)  =      4.448349    -0.000000    -0.000000     4.448349
	  103 D(10,9,8,18)    =   -179.789322     0.000000    -0.025063  -179.814385
	  104 *D(10,13,14,21) =     -6.009435     0.000000    -0.000000    -6.009435
	  105 D(10,13,14,22)  =    114.623375    -0.000007    -0.157275   114.466101
	  106 D(10,13,14,23)  =   -126.631708     0.000015     0.674703  -125.957005
	  107 D(11,10,9,17)   =    179.681040    -0.000001     0.000080   179.681120
	  108 *D(11,10,13,14) =   -173.718651    -0.000000     0.000000  -173.718651
	  109 D(11,12,1,19)   =     -1.214427    -0.000001    -0.193147    -1.407574
	  110 D(12,1,2,15)    =    179.495530     0.000000    -0.259958   179.235572
	  111 D(12,7,6,16)    =   -179.380649     0.000001     0.422802  -178.957847
	  112 D(12,7,8,18)    =    179.627618     0.000003     0.295281   179.922899
	  113 D(12,11,10,13)  =    178.480942     0.000003     0.637258   179.118199
	  114 D(13,10,9,17)   =      1.571537     0.000001     0.038235     1.609771
	  115 D(13,10,11,20)  =     -0.935326    -0.000001     0.143513    -0.791813
	  116 D(15,2,1,19)    =      0.036764    -0.000000    -0.262692    -0.225928
	  117 D(17,9,8,18)    =      0.202701    -0.000003    -0.300362    -0.097661
	 ---------------------------------------------------------------------------
	Successfully symmetrized geometry.

  ==> Convergence Check <==

  Measures of convergence in internal coordinates in au.
  Criteria marked as inactive (o), active & met (*), and active & unmet ( ).
  --------------------------------------------------------------------------------------------- ~
   Step     Total Energy     Delta E     MAX Force     RMS Force      MAX Disp      RMS Disp    ~
  --------------------------------------------------------------------------------------------- ~
    Convergence Criteria             o    2.50e-03 *    1.70e-03 *    1.00e-02 *    6.70e-03 *  ~
  --------------------------------------------------------------------------------------------- ~
      1   -1188.11154884   -1.19e+03 o    2.79e-02      6.70e-03      7.81e-02      1.60e-02    ~
  ---------------------------------------------------------------------------------------------

	Writing optimization data to binary file.
	Structure for next step:
	Cartesian Geometry (in Angstrom)
	    N    -1.0284339233  -1.4947879061  -0.0481006569
	    C    -2.3349077288  -1.1443466362   0.1649978067
	    C    -2.6036464684   0.3741646980   0.3580631261
	    F    -3.5489539758   0.7383256005  -0.5551691839
	    F    -3.1291036451   0.5322224217   1.6097441450
	    C    -1.4048781861   1.3573325018   0.2248239864
	    C    -0.0828122688   0.7643043311  -0.0042510126
	    C     1.0477562831   1.5908747088  -0.0974063101
	    C     2.3051835409   1.0570560641  -0.3058000536
	    C     2.4576750107  -0.3403518855  -0.4334270066
	    C     1.3355941054  -1.1794188713  -0.3353312937
	    C     0.0768070626  -0.6344636317  -0.1305747339
	    S     3.9804102966  -1.1941459741  -0.6685209390
	    C     5.2698847753   0.1048902266  -0.5685332343
	    O    -3.2347643991  -1.9666397627   0.2079322108
	    O    -1.6145214309   2.5554119968   0.3246766752
	    H     3.1540859240   1.7380907497  -0.3712990236
	    H     0.9146009589   2.6710705474   0.0001945843
	    H    -0.8877739803  -2.4993387218  -0.1616906741
	    H     1.4482933005  -2.2661198944  -0.4183012107
	    H     4.8450608187   1.1156408937  -0.4963427667
	    H     5.8909576433  -0.0797652155   0.3199312597
	    H     5.8838943042   0.0476256846  -1.4763552639
			--------------------------
			 OPTKING Finished Execution 
			--------------------------

    Structure for next step:
    Molecular point group: c1
    Full point group: C1

    Geometry (in Angstrom), charge = 0, multiplicity = 1:

    N           -1.039295938978    -1.488937248558    -0.008404656617
    C           -2.345769749580    -1.138495977332     0.204693807772
    C           -2.614508490231     0.380015362919     0.397759127943
    F           -3.559816001391     0.744176266778    -0.515473185606
    F           -3.139965669022     0.538073087198     1.649440151797
    C           -1.415740203223     1.363183170494     0.264519987786
    C           -0.093674280778     0.770154997507     0.035444987859
    C            1.036894275545     1.596725378419    -0.057710309998
    C            2.294321538322     1.062906731656    -0.266104054309
    C            2.446813008762    -0.334501223439    -0.393731007820
    C            1.324732098971    -1.173568212551    -0.295635294556
    C            0.065945051298    -0.628612970839    -0.090878733943
    S            3.969548300579    -1.188295315409    -0.628824941115
    C            5.259022784373     0.110740890370    -0.528837236022
    O           -3.245626423453    -1.960789107026     0.247628212040
    O           -1.625383448845     2.561262670225     0.364372676924
    H            3.143223924749     1.743941419912    -0.331603024621
    H            0.903738950857     2.676921221273     0.039890584746
    H           -0.898635995472    -2.493488068217    -0.121994674257
    H            1.437431294520    -2.260269239896    -0.378605211905
    H            4.834198826065     1.121491561521    -0.456646768189
    H            5.880095654759    -0.073914552425     0.359627261381
    H            5.873032315659     0.053476348171    -1.436659269206

gradient() will perform analytic gradient computation.

*** tstart() called on cpu-spot-dy-c5n2xlarge-1
*** at Tue Jun 22 03:19:40 2021

   => Loading Basis Set <=

    Name: 6-31+G*
    Role: ORBITAL
    Keyword: BASIS
    atoms 1             entry N          line   138 file /fsx/users/francis/anaconda3/envs/poltype-dev/share/psi4/basis/6-31pgs.gbs 
    atoms 2-3, 6-12, 14 entry C          line   119 file /fsx/users/francis/anaconda3/envs/poltype-dev/share/psi4/basis/6-31pgs.gbs 
    atoms 4-5           entry F          line   176 file /fsx/users/francis/anaconda3/envs/poltype-dev/share/psi4/basis/6-31pgs.gbs 
    atoms 13            entry S          line   344 file /fsx/users/francis/anaconda3/envs/poltype-dev/share/psi4/basis/6-31pgs.gbs 
    atoms 15-16         entry O          line   157 file /fsx/users/francis/anaconda3/envs/poltype-dev/share/psi4/basis/6-31pgs.gbs 
    atoms 17-23         entry H          line    46 file /fsx/users/francis/anaconda3/envs/poltype-dev/share/psi4/basis/6-31pgs.gbs 


         ---------------------------------------------------------
                                   SCF
               by Justin Turney, Rob Parrish, Andy Simmonett
                          and Daniel G. A. Smith
                              RKS Reference
                        8 Threads,  15258 MiB Core
         ---------------------------------------------------------

  ==> Geometry <==

    Molecular point group: c1
    Full point group: C1

    Geometry (in Angstrom), charge = 0, multiplicity = 1:

       Center              X                  Y                   Z               Mass       
    ------------   -----------------  -----------------  -----------------  -----------------
         N           -1.039295938978    -1.488937248558    -0.008404656617    14.003074004430
         C           -2.345769749580    -1.138495977332     0.204693807772    12.000000000000
         C           -2.614508490231     0.380015362919     0.397759127943    12.000000000000
         F           -3.559816001391     0.744176266778    -0.515473185606    18.998403162730
         F           -3.139965669022     0.538073087198     1.649440151797    18.998403162730
         C           -1.415740203223     1.363183170494     0.264519987786    12.000000000000
         C           -0.093674280778     0.770154997507     0.035444987859    12.000000000000
         C            1.036894275545     1.596725378419    -0.057710309998    12.000000000000
         C            2.294321538322     1.062906731656    -0.266104054309    12.000000000000
         C            2.446813008762    -0.334501223439    -0.393731007820    12.000000000000
         C            1.324732098971    -1.173568212551    -0.295635294556    12.000000000000
         C            0.065945051298    -0.628612970839    -0.090878733943    12.000000000000
         S            3.969548300579    -1.188295315409    -0.628824941115    31.972071174400
         C            5.259022784373     0.110740890370    -0.528837236022    12.000000000000
         O           -3.245626423453    -1.960789107026     0.247628212040    15.994914619570
         O           -1.625383448845     2.561262670225     0.364372676924    15.994914619570
         H            3.143223924749     1.743941419912    -0.331603024621     1.007825032230
         H            0.903738950857     2.676921221273     0.039890584746     1.007825032230
         H           -0.898635995472    -2.493488068217    -0.121994674257     1.007825032230
         H            1.437431294520    -2.260269239896    -0.378605211905     1.007825032230
         H            4.834198826065     1.121491561521    -0.456646768189     1.007825032230
         H            5.880095654759    -0.073914552425     0.359627261381     1.007825032230
         H            5.873032315659     0.053476348171    -1.436659269206     1.007825032230

  Running in c1 symmetry.

  Rotational constants: A =      0.03895  B =      0.00829  C =      0.00711 [cm^-1]
  Rotational constants: A =   1167.70908  B =    248.38559  C =    213.26051 [MHz]
  Nuclear repulsion = 1183.990736574354514

  Charge       = 0
  Multiplicity = 1
  Electrons    = 124
  Nalpha       = 62
  Nbeta        = 62

  ==> Algorithm <==

  SCF Algorithm Type is DF.
  DIIS enabled.
  MOM disabled.
  Fractional occupation disabled.
  Guess Type is READ.
  Energy threshold   = 1.00e-08
  Density threshold  = 1.00e-08
  Integral threshold = 0.00e+00

  ==> Primary Basis <==

  Basis Set: 6-31+G*
    Blend: 6-31+G*
    Number of shells: 144
    Number of basis function: 322
    Number of Cartesian functions: 322
    Spherical Harmonics?: false
    Max angular momentum: 2

  ==> DFT Potential <==

   => Composite Functional: WB97X-D <= 

    wB97X-D Hyb-GGA Exchange-Correlation Functional

    J.-D. Chai and M. Head-Gordon, Phys. Chem. Chem. Phys. 10, 6615 (2008)

    Deriv               =              1
    GGA                 =           TRUE
    Meta                =          FALSE

    Exchange Hybrid     =           TRUE
    MP2 Hybrid          =          FALSE

   => Exchange-Correlation Functionals <=

    1.0000   wB97D range-separated functional

   => Exact (HF) Exchange <=

    0.7780            HF,LR [omega = 0.2000]
    0.2220               HF 

   => Molecular Quadrature <=

    Radial Scheme          =       TREUTLER
    Pruning Scheme         =           FLAT
    Nuclear Scheme         =       TREUTLER

    BS radius alpha        =              1
    Pruning alpha          =              1
    Radial Points          =             75
    Spherical Points       =            302
    Total Points           =         520855
    Total Blocks           =           3887
    Max Points             =            256
    Max Functions          =            288

   => WB97X-D: Empirical Dispersion <=

    Chai and Head-Gordon Dispersion Correction
    Chai, J.-D.; Head-Gordon, M. (2010), J. Chem. Phys., 132: 6615-6620

        s6 =       1.000000

   => Loading Basis Set <=

    Name: (6-31+G* AUX)
    Role: JKFIT
    Keyword: DF_BASIS_SCF
    atoms 1             entry N          line   252 file /fsx/users/francis/anaconda3/envs/poltype-dev/share/psi4/basis/heavy-aug-cc-pvdz-jkfit.gbs 
    atoms 2-3, 6-12, 14 entry C          line   194 file /fsx/users/francis/anaconda3/envs/poltype-dev/share/psi4/basis/heavy-aug-cc-pvdz-jkfit.gbs 
    atoms 4-5           entry F          line   368 file /fsx/users/francis/anaconda3/envs/poltype-dev/share/psi4/basis/heavy-aug-cc-pvdz-jkfit.gbs 
    atoms 13            entry S          line   730 file /fsx/users/francis/anaconda3/envs/poltype-dev/share/psi4/basis/heavy-aug-cc-pvdz-jkfit.gbs 
    atoms 15-16         entry O          line   310 file /fsx/users/francis/anaconda3/envs/poltype-dev/share/psi4/basis/heavy-aug-cc-pvdz-jkfit.gbs 
    atoms 17-23         entry H          line   116 file /fsx/users/francis/anaconda3/envs/poltype-dev/share/psi4/basis/heavy-aug-cc-pvdz-jkfit.gbs 

   => Loading Basis Set <=

    Name: 6-31+G*
    Role: ORBITAL
    Keyword: BASIS
    atoms 1             entry N          line   138 file /fsx/users/francis/anaconda3/envs/poltype-dev/share/psi4/basis/6-31pgs.gbs 
    atoms 2-3, 6-12, 14 entry C          line   119 file /fsx/users/francis/anaconda3/envs/poltype-dev/share/psi4/basis/6-31pgs.gbs 
    atoms 4-5           entry F          line   176 file /fsx/users/francis/anaconda3/envs/poltype-dev/share/psi4/basis/6-31pgs.gbs 
    atoms 13            entry S          line   344 file /fsx/users/francis/anaconda3/envs/poltype-dev/share/psi4/basis/6-31pgs.gbs 
    atoms 15-16         entry O          line   157 file /fsx/users/francis/anaconda3/envs/poltype-dev/share/psi4/basis/6-31pgs.gbs 
    atoms 17-23         entry H          line    46 file /fsx/users/francis/anaconda3/envs/poltype-dev/share/psi4/basis/6-31pgs.gbs 

  Reading orbitals from file 180, no projection.

  ==> Pre-Iterations <==

   -------------------------------------------------------
    Irrep   Nso     Nmo     Nalpha   Nbeta   Ndocc  Nsocc
   -------------------------------------------------------
     A        322     322       0       0       0       0
   -------------------------------------------------------
    Total     322     322      62      62      62       0
   -------------------------------------------------------

  ==> Integral Setup <==

  ==> DiskDFJK: Density-Fitted J/K Matrices <==

    J tasked:                  Yes
    K tasked:                  Yes
    wK tasked:                 Yes
    Omega:               2.000E-01
    OpenMP threads:              8
    Integrals threads:           8
    Memory [MiB]:             8441
    Algorithm:                Core
    Integral Cache:           NONE
    Schwarz Cutoff:          1E-12
    Fitting Condition:       1E-10

   => Auxiliary Basis Set <=

  Basis Set: (6-31+G* AUX)
    Blend: HEAVY-AUG-CC-PVDZ-JKFIT
    Number of shells: 523
    Number of basis function: 1840
    Number of Cartesian functions: 1840
    Spherical Harmonics?: false
    Max angular momentum: 3

  Cached 100.0% of DFT collocation blocks in 2.932 [GiB].

  Minimum eigenvalue in the overlap matrix is 4.5862376839E-07.
  Using Symmetric Orthogonalization.

  SCF Guess: Orbitals guess was supplied from a previous computation.

  ==> Iterations <==

                           Total Energy        Delta E     RMS |[F,P]|

   @DF-RKS iter   0: -1188.17949795578488   -1.18818e+03   3.17608e-03 
   @DF-RKS iter   1: -1188.10223775093323    7.72602e-02   3.44212e-04 DIIS
   @DF-RKS iter   2: -1188.11147457879383   -9.23683e-03   2.90776e-04 DIIS
   @DF-RKS iter   3: -1188.11497157762278   -3.49700e-03   1.18396e-04 DIIS
   @DF-RKS iter   4: -1188.11560951127831   -6.37934e-04   5.17697e-05 DIIS
   @DF-RKS iter   5: -1188.11574557427889   -1.36063e-04   1.26487e-05 DIIS
   @DF-RKS iter   6: -1188.11575729256265   -1.17183e-05   4.72239e-06 DIIS
   @DF-RKS iter   7: -1188.11575933470431   -2.04214e-06   2.14228e-06 DIIS
   @DF-RKS iter   8: -1188.11575989036646   -5.55662e-07   8.68772e-07 DIIS
   @DF-RKS iter   9: -1188.11576000544551   -1.15079e-07   4.37036e-07 DIIS
   @DF-RKS iter  10: -1188.11576003958135   -3.41358e-08   2.14534e-07 DIIS
   @DF-RKS iter  11: -1188.11576004930976   -9.72841e-09   7.34555e-08 DIIS
   @DF-RKS iter  12: -1188.11576005021288   -9.03128e-10   3.61490e-08 DIIS
   @DF-RKS iter  13: -1188.11576005039751   -1.84627e-10   1.20460e-08 DIIS
   @DF-RKS iter  14: -1188.11576005042639   -2.88765e-11   6.43501e-09 DIIS
  Energy and wave function converged.


  ==> Post-Iterations <==

    Orbital Energies [Eh]
    ---------------------

    Doubly Occupied:                                                      

       1A    -89.086416     2A    -24.870598     3A    -24.869562  
       4A    -19.300857     5A    -19.291917     6A    -14.542634  
       7A    -10.501820     8A    -10.454510     9A    -10.428764  
      10A    -10.407795    11A    -10.391833    12A    -10.359101  
      13A    -10.352928    14A    -10.349774    15A    -10.348690  
      16A    -10.344287    17A     -8.103940    18A     -6.054616  
      19A     -6.050163    20A     -6.044127    21A     -1.384466  
      22A     -1.325748    23A     -1.187703    24A     -1.175338  
      25A     -1.096343    26A     -1.005635    27A     -0.942863  
      28A     -0.905768    29A     -0.889168    30A     -0.866796  
      31A     -0.801035    32A     -0.764479    33A     -0.752205  
      34A     -0.745106    35A     -0.695269    36A     -0.680853  
      37A     -0.666341    38A     -0.644702    39A     -0.629566  
      40A     -0.592556    41A     -0.587018    42A     -0.566284  
      43A     -0.562123    44A     -0.557962    45A     -0.552998  
      46A     -0.551838    47A     -0.546872    48A     -0.531970  
      49A     -0.515252    50A     -0.514529    51A     -0.506075  
      52A     -0.498848    53A     -0.488557    54A     -0.486641  
      55A     -0.474772    56A     -0.441719    57A     -0.434913  
      58A     -0.398344    59A     -0.393620    60A     -0.363893  
      61A     -0.341700    62A     -0.317637  

    Virtual:                                                              

      63A     -0.043383    64A      0.014075    65A      0.038631  
      66A      0.045342    67A      0.055566    68A      0.065738  
      69A      0.067172    70A      0.072448    71A      0.080673  
      72A      0.083404    73A      0.093515    74A      0.098192  
      75A      0.105506    76A      0.111002    77A      0.114611  
      78A      0.116527    79A      0.118105    80A      0.132547  
      81A      0.138910    82A      0.139975    83A      0.144939  
      84A      0.151338    85A      0.154103    86A      0.166077  
      87A      0.170546    88A      0.175272    89A      0.177432  
      90A      0.180519    91A      0.184587    92A      0.191968  
      93A      0.194948    94A      0.199268    95A      0.204068  
      96A      0.206516    97A      0.212415    98A      0.220233  
      99A      0.222973   100A      0.229109   101A      0.234071  
     102A      0.237106   103A      0.243686   104A      0.244414  
     105A      0.248668   106A      0.251543   107A      0.261197  
     108A      0.262393   109A      0.273394   110A      0.276456  
     111A      0.280356   112A      0.287759   113A      0.289513  
     114A      0.292213   115A      0.298027   116A      0.305292  
     117A      0.313889   118A      0.315029   119A      0.326153  
     120A      0.328577   121A      0.332037   122A      0.337204  
     123A      0.341266   124A      0.343433   125A      0.358052  
     126A      0.360793   127A      0.370661   128A      0.380018  
     129A      0.384017   130A      0.386236   131A      0.394399  
     132A      0.399858   133A      0.403261   134A      0.412089  
     135A      0.415795   136A      0.424007   137A      0.427331  
     138A      0.442373   139A      0.448309   140A      0.454139  
     141A      0.458752   142A      0.471903   143A      0.478553  
     144A      0.486834   145A      0.508593   146A      0.516083  
     147A      0.529728   148A      0.533738   149A      0.552268  
     150A      0.556056   151A      0.576847   152A      0.581311  
     153A      0.590691   154A      0.606179   155A      0.614900  
     156A      0.634091   157A      0.654676   158A      0.671199  
     159A      0.691466   160A      0.706211   161A      0.725581  
     162A      0.743495   163A      0.753481   164A      0.761809  
     165A      0.769183   166A      0.774752   167A      0.787952  
     168A      0.800264   169A      0.809747   170A      0.822556  
     171A      0.828677   172A      0.856345   173A      0.863669  
     174A      0.869478   175A      0.878661   176A      0.888642  
     177A      0.896903   178A      0.918808   179A      0.925773  
     180A      0.932256   181A      0.947796   182A      0.962940  
     183A      0.977054   184A      0.982055   185A      1.019863  
     186A      1.023381   187A      1.049787   188A      1.054800  
     189A      1.059985   190A      1.088084   191A      1.090416  
     192A      1.110773   193A      1.134878   194A      1.153034  
     195A      1.161745   196A      1.172875   197A      1.204104  
     198A      1.207885   199A      1.211094   200A      1.226402  
     201A      1.238356   202A      1.256885   203A      1.273551  
     204A      1.282839   205A      1.295977   206A      1.327336  
     207A      1.330187   208A      1.337565   209A      1.354961  
     210A      1.386786   211A      1.406041   212A      1.411278  
     213A      1.416590   214A      1.425398   215A      1.437714  
     216A      1.449771   217A      1.455410   218A      1.466796  
     219A      1.474535   220A      1.486025   221A      1.510555  
     222A      1.516425   223A      1.525199   224A      1.535522  
     225A      1.549932   226A      1.602765   227A      1.627204  
     228A      1.660310   229A      1.673366   230A      1.681753  
     231A      1.716147   232A      1.750398   233A      1.755799  
     234A      1.760361   235A      1.764059   236A      1.765173  
     237A      1.781354   238A      1.787531   239A      1.789549  
     240A      1.826644   241A      1.843043   242A      1.876141  
     243A      1.891244   244A      1.899122   245A      1.909619  
     246A      1.919363   247A      1.924799   248A      1.961075  
     249A      1.970251   250A      1.972977   251A      1.979344  
     252A      2.011402   253A      2.038232   254A      2.047407  
     255A      2.059822   256A      2.068248   257A      2.081862  
     258A      2.105861   259A      2.108836   260A      2.135888  
     261A      2.165273   262A      2.171795   263A      2.179525  
     264A      2.214449   265A      2.219867   266A      2.229180  
     267A      2.248078   268A      2.254387   269A      2.265989  
     270A      2.282456   271A      2.306659   272A      2.317443  
     273A      2.322757   274A      2.351764   275A      2.356657  
     276A      2.381106   277A      2.391855   278A      2.422821  
     279A      2.471698   280A      2.481243   281A      2.527208  
     282A      2.541806   283A      2.590589   284A      2.644156  
     285A      2.682037   286A      2.691849   287A      2.728681  
     288A      2.752611   289A      2.757142   290A      2.782587  
     291A      2.785137   292A      2.836488   293A      2.843241  
     294A      2.875081   295A      2.925020   296A      2.964270  
     297A      2.978702   298A      3.046276   299A      3.140917  
     300A      3.177456   301A      3.220961   302A      3.247853  
     303A      3.357972   304A      3.413566   305A      3.496430  
     306A      3.510813   307A      4.039617   308A      4.293599  
     309A      4.318629   310A      4.350585   311A      4.366902  
     312A      4.389071   313A      4.427366   314A      4.483352  
     315A      4.490753   316A      4.528982   317A      4.595503  
     318A      4.806286   319A      4.861865   320A      5.149559  
     321A      5.713584   322A      7.212596  

    Final Occupation by Irrep:
              A 
    DOCC [    62 ]

  @DF-RKS Final Energy: -1188.11576005042639

   => Energetics <=

    Nuclear Repulsion Energy =           1183.9907365743545142
    One-Electron Energy =               -3982.0305278394826018
    Two-Electron Energy =                1699.4410619504913029
    DFT Exchange-Correlation Energy =     -89.5036382385311242
    Empirical Dispersion Energy =          -0.0133924972589270
    VV10 Nonlocal Energy =                  0.0000000000000000
    Total Energy =                      -1188.1157600504266156

Computation Completed


Properties will be evaluated at   0.000000,   0.000000,   0.000000 [a0]

Properties computed using the SCF density matrix

  Nuclear Dipole Moment: [e a0]
     X:    26.2538      Y:    -0.5136      Z:    -3.2639

  Electronic Dipole Moment: [e a0]
     X:   -22.9383      Y:     0.0856      Z:     2.8330

  Dipole Moment: [e a0]
     X:     3.3155      Y:    -0.4280      Z:    -0.4310     Total:     3.3707

  Dipole Moment: [D]
     X:     8.4271      Y:    -1.0880      Z:    -1.0954     Total:     8.5674


*** tstop() called on cpu-spot-dy-c5n2xlarge-1 at Tue Jun 22 03:20:48 2021
Module time:
	user time   =     509.38 seconds =       8.49 minutes
	system time =       7.03 seconds =       0.12 minutes
	total time  =         68 seconds =       1.13 minutes
Total time:
	user time   =    1228.85 seconds =      20.48 minutes
	system time =      20.94 seconds =       0.35 minutes
	total time  =        168 seconds =       2.80 minutes

*** tstart() called on cpu-spot-dy-c5n2xlarge-1
*** at Tue Jun 22 03:20:48 2021


         ------------------------------------------------------------
                                   SCF GRAD                          
                          Rob Parrish, Justin Turney,                
                       Andy Simmonett, and Alex Sokolov              
         ------------------------------------------------------------

  ==> Geometry <==

    Molecular point group: c1
    Full point group: C1

    Geometry (in Angstrom), charge = 0, multiplicity = 1:

       Center              X                  Y                   Z               Mass       
    ------------   -----------------  -----------------  -----------------  -----------------
         N           -1.039295938978    -1.488937248558    -0.008404656617    14.003074004430
         C           -2.345769749580    -1.138495977332     0.204693807772    12.000000000000
         C           -2.614508490231     0.380015362919     0.397759127943    12.000000000000
         F           -3.559816001391     0.744176266778    -0.515473185606    18.998403162730
         F           -3.139965669022     0.538073087198     1.649440151797    18.998403162730
         C           -1.415740203223     1.363183170494     0.264519987786    12.000000000000
         C           -0.093674280778     0.770154997507     0.035444987859    12.000000000000
         C            1.036894275545     1.596725378419    -0.057710309998    12.000000000000
         C            2.294321538322     1.062906731656    -0.266104054309    12.000000000000
         C            2.446813008762    -0.334501223439    -0.393731007820    12.000000000000
         C            1.324732098971    -1.173568212551    -0.295635294556    12.000000000000
         C            0.065945051298    -0.628612970839    -0.090878733943    12.000000000000
         S            3.969548300579    -1.188295315409    -0.628824941115    31.972071174400
         C            5.259022784373     0.110740890370    -0.528837236022    12.000000000000
         O           -3.245626423453    -1.960789107026     0.247628212040    15.994914619570
         O           -1.625383448845     2.561262670225     0.364372676924    15.994914619570
         H            3.143223924749     1.743941419912    -0.331603024621     1.007825032230
         H            0.903738950857     2.676921221273     0.039890584746     1.007825032230
         H           -0.898635995472    -2.493488068217    -0.121994674257     1.007825032230
         H            1.437431294520    -2.260269239896    -0.378605211905     1.007825032230
         H            4.834198826065     1.121491561521    -0.456646768189     1.007825032230
         H            5.880095654759    -0.073914552425     0.359627261381     1.007825032230
         H            5.873032315659     0.053476348171    -1.436659269206     1.007825032230

  Nuclear repulsion = 1183.990736574354514

  ==> Basis Set <==

  Basis Set: 6-31+G*
    Blend: 6-31+G*
    Number of shells: 144
    Number of basis function: 322
    Number of Cartesian functions: 322
    Spherical Harmonics?: false
    Max angular momentum: 2

  ==> DFJKGrad: Density-Fitted SCF Gradients <==

    Gradient:                    1
    J tasked:                  Yes
    K tasked:                  Yes
    wK tasked:                 Yes
    Omega:               2.000E-01
    OpenMP threads:              8
    Integrals threads:           8
    Memory [MiB]:            11444
    Schwarz Cutoff:          0E+00
    Fitting Condition:       1E-10

   => Auxiliary Basis Set <=

  Basis Set: (6-31+G* AUX)
    Blend: HEAVY-AUG-CC-PVDZ-JKFIT
    Number of shells: 523
    Number of basis function: 1840
    Number of Cartesian functions: 1840
    Spherical Harmonics?: false
    Max angular momentum: 3

  ==> DFT Potential <==

   => Composite Functional: WB97X-D <= 

    wB97X-D Hyb-GGA Exchange-Correlation Functional

    J.-D. Chai and M. Head-Gordon, Phys. Chem. Chem. Phys. 10, 6615 (2008)

    Deriv               =              1
    GGA                 =           TRUE
    Meta                =          FALSE

    Exchange Hybrid     =           TRUE
    MP2 Hybrid          =          FALSE

   => Exchange-Correlation Functionals <=

    1.0000   wB97D range-separated functional

   => Exact (HF) Exchange <=

    0.7780            HF,LR [omega = 0.2000]
    0.2220               HF 

   => Molecular Quadrature <=

    Radial Scheme          =       TREUTLER
    Pruning Scheme         =           FLAT
    Nuclear Scheme         =       TREUTLER

    BS radius alpha        =              1
    Pruning alpha          =              1
    Radial Points          =             75
    Spherical Points       =            302
    Total Points           =         520855
    Total Blocks           =           3887
    Max Points             =            256
    Max Functions          =            288


  -Total Gradient:
     Atom            X                  Y                   Z
    ------   -----------------  -----------------  -----------------
       1       -0.000430481186     0.002752293903     0.000101984824
       2        0.009649235545     0.007931546684    -0.000415785104
       3        0.007821885197    -0.001932914069    -0.000457057724
       4       -0.005248187534     0.002430573052    -0.006437403395
       5       -0.002463842816     0.000969529875     0.007298162607
       6        0.000027150659    -0.011166245052    -0.000535710918
       7        0.000749296497     0.001506762806    -0.000047443776
       8        0.003111215700     0.001094808336    -0.000304946013
       9       -0.002722808929     0.002214443567     0.001722099339
      10        0.002164672397    -0.000943803025    -0.004628067161
      11       -0.003360108941     0.000114670988     0.001907258520
      12        0.005534921979    -0.003521853179    -0.000823739747
      13       -0.004628013436    -0.008077970351     0.000938566784
      14       -0.001877217920     0.001116040300    -0.000794602054
      15       -0.011834337890    -0.013311892408     0.000273440258
      16       -0.000843638457     0.015671358432     0.001048834621
      17        0.005446199198     0.004027391136    -0.000173186610
      18        0.000474341949     0.005185808804     0.000230730090
      19       -0.000956573174    -0.006757011840    -0.000533671675
      20       -0.000383308523    -0.005925890870    -0.000340905191
      21       -0.003461276221     0.007726693929     0.001138363333
      22        0.002611100379    -0.001059516518     0.004685688124
      23        0.001639355262    -0.000289849770    -0.003917677754


[...]
	 B(6,7,8)         =         2.106858	     120.714053
	 B(6,7,12)        =         2.103760	     120.536591
	 B(7,6,16)        =         2.187555	     125.337697
	 B(7,8,9)         =         2.121485	     121.552119
	 B(7,8,18)        =         2.060053	     118.032327
	 B(7,12,11)       =         2.095296	     120.051638
	 B(8,7,12)        =         2.072386	     118.738983
	 B(8,9,10)        =         2.087630	     119.612398
	 B(8,9,17)        =         2.071651	     118.696841
	 B(9,8,18)        =         2.101612	     120.413526
	 B(9,10,11)       =         2.083002	     119.347199
	 B(9,10,13)       =         2.207209	     126.463773
	 B(10,9,17)       =         2.123852	     121.687773
	 B(10,11,12)      =         2.106351	     120.685040
	 B(10,11,20)      =         2.088785	     119.678539
	 B(10,13,14)      =         1.871463	     107.226911
	 B(11,10,13)      =         1.992544	     114.164345
	 B(12,1,19)       =         2.068644	     118.524594
	 B(12,11,20)      =         2.088047	     119.636259
	 B(13,14,21)      =         1.961247	     112.371189
	 B(13,14,22)      =         1.903782	     109.078667
	 B(13,14,23)      =         1.893702	     108.501143
	 B(21,14,22)      =         1.894214	     108.530490
	 B(21,14,23)      =         1.896005	     108.633101
	 B(22,14,23)      =         1.914665	     109.702203
	 D(1,2,3,4)       =         2.723727	     156.058075
	 D(1,2,3,5)       =        -1.523707	     -87.301957
	 D(1,2,3,6)       =         0.514033	      29.451949
	 D(1,12,7,6)      =         0.015451	       0.885294
	 D(1,12,7,8)      =        -3.105839	    -177.951462
	 D(1,12,11,10)    =         3.103704	     177.829168
	 D(1,12,11,20)    =        -0.035326	      -2.024046
	 D(2,1,12,7)      =        -0.055754	      -3.194473
	 D(2,1,12,11)     =         3.110637	     178.226347
	 D(2,3,6,7)       =        -0.550151	     -31.521322
	 D(2,3,6,16)      =         2.640493	     151.289119
	 D(3,2,1,12)      =        -0.219412	     -12.571401
	 D(3,2,1,19)      =         3.044913	     174.460644
	 D(3,6,7,8)       =        -2.872132	    -164.561062
	 D(3,6,7,12)      =         0.290166	      16.625311
	 D(4,3,2,15)      =        -0.485936	     -27.842064
	 D(4,3,6,7)       =        -2.748549	    -157.480278
	 D(4,3,6,16)      =         0.442095	      25.330163
	 D(5,3,2,15)      =         1.549816	      88.797904
	 D(5,3,6,7)       =         1.487727	      85.240500
	 D(5,3,6,16)      =        -1.604814	     -91.949059
	 D(6,3,2,15)      =        -2.695629	    -154.448190
	 D(6,7,8,9)       =        -3.134528	    -179.595202
	 D(6,7,8,18)      =         0.016073	       0.920901
	 D(6,7,12,11)     =         3.132040	     179.452657
	 D(7,8,9,10)      =         0.017935	       1.027616
	 D(7,8,9,17)      =        -3.134447	    -179.590559
	 D(7,12,1,19)     =         2.959057	     169.541494
	 D(7,12,11,10)    =        -0.013258	      -0.759633
	 D(7,12,11,20)    =         3.130896	     179.387153
	 D(8,7,6,16)      =         0.217369	      12.454344
	 D(8,7,12,11)     =         0.010749	       0.615901
	 D(8,9,10,11)     =        -0.019814	      -1.135286
	 D(8,9,10,13)     =        -3.127921	    -179.216649
	 D(9,8,7,12)      =        -0.013275	      -0.760581
	 D(9,10,11,12)    =         0.017705	       1.014412
	 D(9,10,11,20)    =        -3.126451	    -179.132437
	*D(9,10,13,14)    =         0.077638	       4.448349
	 D(10,9,8,18)     =        -3.132877	    -179.500629
	*D(10,13,14,21)   =        -0.104884	      -6.009435
	 D(10,13,14,22)   =         1.996455	     114.388431
	 D(10,13,14,23)   =        -2.201664	    -126.146048
	 D(11,10,9,17)    =         3.132900	     179.501959
	*D(11,10,13,14)   =        -3.031962	    -173.718651
	 D(11,12,1,19)    =        -0.157737	      -9.037686
	 D(12,1,2,15)     =         2.991058	     171.375001
	 D(12,7,6,16)     =        -2.903517	    -166.359283
	 D(12,7,8,18)     =         3.137326	     179.755522
	 D(12,11,10,13)   =         3.129781	     179.323258
	 D(13,10,9,17)    =         0.024794	       1.420596
	 D(13,10,11,20)   =        -0.014374	      -0.823590
	 D(15,2,1,19)     =        -0.027802	      -1.592954
	 D(17,9,8,18)     =        -0.002074	      -0.118804

	Current energy   :     -1188.1185079288

	Energy change for the previous step:
		Projected    :        -0.0000555555
		Actual       :        -0.0000020652

	Performing BFGS update.
	Previous computed or guess Hessian on step 1.
	Steps to be used in Hessian update: 4 3
	Taking RFO optimization step.
	Going to follow RFO solution 1.
	Using RFO vector 1.
	Norm of target step-size    0.02263
	Projected energy change by RFO approximation:        -0.0000126772

	Back-transformation to cartesian coordinates...
	Successfully converged to displaced geometry.

	Back-transformation to cartesian coordinates to adjust frozen coordinates...
	Successfully converged to displaced geometry.

	--- Internal Coordinate Step in ANG or DEG, aJ/ANG or AJ/DEG ---
	 ---------------------------------------------------------------------------
	   Coordinate                Previous        Force       Change         New 
	   ----------                --------       ------       ------       ------
	    1 R(1,2)          =      1.370723     0.000125    -0.000051     1.370672
	    2 R(1,12)         =      1.399654    -0.000700    -0.000131     1.399523
	    3 R(1,19)         =      1.012747     0.000628     0.000062     1.012809
	    4 R(2,3)          =      1.545073     0.001802     0.000256     1.545329
	    5 R(2,15)         =      1.208240     0.000897     0.000049     1.208289
	    6 R(3,4)          =      1.335877    -0.003626    -0.000436     1.335441
	    7 R(3,5)          =      1.375075     0.003156     0.000314     1.375389
	    8 R(3,6)          =      1.549474    -0.000427    -0.000164     1.549310
	    9 R(6,7)          =      1.467247     0.000117    -0.000079     1.467168
	   10 R(6,16)         =      1.209741     0.000309     0.000035     1.209776
	   11 R(7,8)          =      1.396944     0.000594     0.000108     1.397052
	   12 R(7,12)         =      1.405688     0.000699    -0.000000     1.405688
	   13 R(8,9)          =      1.384163    -0.001585    -0.000148     1.384015
	   14 R(8,18)         =      1.085762     0.000454     0.000023     1.085785
	   15 R(9,10)         =      1.402954     0.000307     0.000001     1.402955
	   16 R(9,17)         =      1.082471     0.000558     0.000064     1.082535
	   17 R(10,11)        =      1.400592    -0.000110    -0.000069     1.400522
	   18 R(10,13)        =      1.766363    -0.001427    -0.000255     1.766108
	   19 R(11,12)        =      1.389864    -0.001886    -0.000108     1.389756
	   20 R(11,20)        =      1.087280     0.000368     0.000024     1.087304
	   21 R(13,14)        =      1.818138    -0.001086    -0.000264     1.817874
	   22 R(14,21)        =      1.088807     0.001153     0.000206     1.089013
	   23 R(14,22)        =      1.091618     0.000090     0.000021     1.091640
	   24 R(14,23)        =      1.091276     0.000075     0.000026     1.091302
	   25 B(1,2,3)        =    114.183994     0.000005     0.039870   114.223863
	   26 B(1,2,15)       =    123.369137    -0.000003    -0.008886   123.360252
	   27 B(1,12,7)       =    120.715453     0.000003     0.000595   120.716047
	   28 B(1,12,11)      =    119.217637    -0.000005    -0.007094   119.210543
	   29 B(2,1,12)       =    126.270503    -0.000004     0.005616   126.276119
	   30 B(2,1,19)       =    114.845408     0.000001    -0.008343   114.837066
	   31 B(2,3,4)        =    109.688734     0.000010     0.017099   109.705833
	   32 B(2,3,5)        =    105.749023    -0.000012    -0.037631   105.711392
	   33 B(2,3,6)        =    115.899732    -0.000005     0.010121   115.909854
	   34 B(3,2,15)       =    122.324304    -0.000001    -0.006390   122.317914
	   35 B(3,6,7)        =    114.622916     0.000001     0.018496   114.641412
	   36 B(3,6,16)       =    119.972833     0.000011    -0.008652   119.964181
	   37 B(4,3,5)        =    108.353271     0.000011     0.057714   108.410985
	   38 B(4,3,6)        =    110.970974    -0.000009    -0.013755   110.957219
	   39 B(5,3,6)        =    105.734864     0.000007    -0.031918   105.702946
	   40 B(6,7,8)        =    120.714053    -0.000005    -0.012193   120.701861
	   41 B(6,7,12)       =    120.536591    -0.000001     0.004069   120.540660
	   42 B(7,6,16)       =    125.337697    -0.000013    -0.031482   125.306216
	   43 B(7,8,9)        =    121.552119    -0.000006    -0.008651   121.543469
	   44 B(7,8,18)       =    118.032327     0.000006     0.007269   118.039596
	   45 B(7,12,11)      =    120.051638     0.000001     0.005752   120.057390
	   46 B(8,7,12)       =    118.738983     0.000005     0.007087   118.746070
	   47 B(8,9,10)       =    119.612398    -0.000004    -0.008830   119.603568
	   48 B(8,9,17)       =    118.696841     0.000002     0.012679   118.709520
	   49 B(9,8,18)       =    120.413526     0.000000     0.002059   120.415585
	   50 B(9,10,11)      =    119.347199     0.000013     0.026138   119.373338
	   51 B(9,10,13)      =    126.463773    -0.000017    -0.040071   126.423702
	   52 B(10,9,17)      =    121.687773     0.000002    -0.003986   121.683786
	   53 B(10,11,12)     =    120.685040    -0.000010    -0.020907   120.664133
	   54 B(10,11,20)     =    119.678539     0.000009     0.022827   119.701367
	   55 B(10,13,14)     =    107.226911    -0.000056    -0.129681   107.097230
	   56 B(11,10,13)     =    114.164345     0.000004     0.013917   114.178262
	   57 B(12,1,19)      =    118.524594     0.000003     0.014588   118.539182
	   58 B(12,11,20)     =    119.636259     0.000000    -0.001935   119.634324
	   59 B(13,14,21)     =    112.371189    -0.000001    -0.001876   112.369314
	   60 B(13,14,22)     =    109.078667     0.000001     0.008530   109.087198
	   61 B(13,14,23)     =    108.501143    -0.000001    -0.003943   108.497199
	   62 B(21,14,22)     =    108.530490    -0.000001    -0.005337   108.525152
	   63 B(21,14,23)     =    108.633101    -0.000000    -0.005978   108.627123
	   64 B(22,14,23)     =    109.702203     0.000002     0.008924   109.711127
	   65 D(1,2,3,4)      =    156.058075    -0.000003    -0.231921   155.826154
	   66 D(1,2,3,5)      =    -87.301957    -0.000000    -0.176225   -87.478182
	   67 D(1,2,3,6)      =     29.451949    -0.000001    -0.236086    29.215864
	   68 D(1,12,7,6)     =      0.885294    -0.000001    -0.095586     0.789708
	   69 D(1,12,7,8)     =   -177.951462    -0.000001    -0.038721  -177.990183
	   70 D(1,12,11,10)   =    177.829168     0.000000    -0.003161   177.826007
	   71 D(1,12,11,20)   =     -2.024046     0.000000     0.003372    -2.020674
	   72 D(2,1,12,7)     =     -3.194473    -0.000001    -0.067955    -3.262428
	   73 D(2,1,12,11)    =    178.226347    -0.000001    -0.033715   178.192632
	   74 D(2,3,6,7)      =    -31.521322    -0.000000     0.099399   -31.421923
	   75 D(2,3,6,16)     =    151.289119     0.000004     0.524773   151.813892
	   76 D(3,2,1,12)     =    -12.571401     0.000002     0.228515   -12.342886
	   77 D(3,2,1,19)     =    174.460644     0.000001     0.111123   174.571766
	   78 D(3,6,7,8)      =   -164.561062     0.000002     0.013897  -164.547165
	   79 D(3,6,7,12)     =     16.625311     0.000002     0.071652    16.696963
	   80 D(4,3,2,15)     =    -27.842064     0.000001     0.180563   -27.661501
	   81 D(4,3,6,7)      =   -157.480278    -0.000001     0.079439  -157.400840
	   82 D(4,3,6,16)     =     25.330163     0.000003     0.504813    25.834976
	   83 D(5,3,2,15)     =     88.797904     0.000004     0.236259    89.034163
	   84 D(5,3,6,7)      =     85.240500    -0.000004     0.036346    85.276847
	   85 D(5,3,6,16)     =    -91.949059     0.000001     0.461720   -91.487338
	   86 D(6,3,2,15)     =   -154.448190     0.000003     0.176398  -154.271791
	   87 D(6,7,8,9)      =   -179.595202     0.000001     0.133476  -179.461726
	   88 D(6,7,8,18)     =      0.920901     0.000000     0.038429     0.959330
	   89 D(6,7,12,11)    =    179.452657    -0.000001    -0.130297   179.322360
	   90 D(7,8,9,10)     =      1.027616    -0.000000    -0.035943     0.991673
	   91 D(7,8,9,17)     =   -179.590559    -0.000001    -0.050038  -179.640597
	   92 D(7,12,1,19)    =    169.541494    -0.000000     0.051872   169.593367
	   93 D(7,12,11,10)   =     -0.759633     0.000000     0.030922    -0.728711
	   94 D(7,12,11,20)   =    179.387153     0.000000     0.037454   179.424608
	   95 D(8,7,6,16)     =     12.454344    -0.000003    -0.436853    12.017491
	   96 D(8,7,12,11)    =      0.615901    -0.000001    -0.073432     0.542469
	   97 D(8,9,10,11)    =     -1.135286    -0.000000    -0.009047    -1.144334
	   98 D(8,9,10,13)    =   -179.216649    -0.000000    -0.008764  -179.225413
	   99 D(9,8,7,12)     =     -0.760581     0.000001     0.076713    -0.683869
	  100 D(9,10,11,12)   =      1.014412     0.000000     0.011039     1.025450
	  101 D(9,10,11,20)   =   -179.132437     0.000000     0.004465  -179.127971
	  102 *D(9,10,13,14)  =      4.448349    -0.000000     0.000000     4.448349
	  103 D(10,9,8,18)    =   -179.500629     0.000001     0.061360  -179.439269
	  104 *D(10,13,14,21) =     -6.009435     0.000000     0.000000    -6.009435
	  105 D(10,13,14,22)  =    114.388431    -0.000000    -0.002118   114.386313
	  106 D(10,13,14,23)  =   -126.146048     0.000000     0.011284  -126.134764
	  107 D(11,10,9,17)   =    179.501959     0.000000     0.005375   179.507334
	  108 *D(11,10,13,14) =   -173.718651    -0.000000    -0.000000  -173.718651
	  109 D(11,12,1,19)   =     -9.037686    -0.000000     0.086112    -8.951574
	  110 D(12,1,2,15)    =    171.375001    -0.000002    -0.188986   171.186015
	  111 D(12,7,6,16)    =   -166.359283    -0.000002    -0.379099  -166.738381
	  112 D(12,7,8,18)    =    179.755522    -0.000000    -0.018334   179.737188
	  113 D(12,11,10,13)  =    179.323258    -0.000000     0.009731   179.332988
	  114 D(13,10,9,17)   =      1.420596     0.000000     0.005659     1.426255
	  115 D(13,10,11,20)  =     -0.823590    -0.000000     0.003157    -0.820433
	  116 D(15,2,1,19)    =     -1.592954    -0.000003    -0.306379    -1.899333
	  117 D(17,9,8,18)    =     -0.118804     0.000001     0.047265    -0.071538
	 ---------------------------------------------------------------------------
	Successfully symmetrized geometry.

  ==> Convergence Check <==

  Measures of convergence in internal coordinates in au.
  Criteria marked as inactive (o), active & met (*), and active & unmet ( ).
  ---------------------------------------------------------------------------------------------
   Step     Total Energy     Delta E     MAX Force     RMS Force      MAX Disp      RMS Disp   
  ---------------------------------------------------------------------------------------------
    Convergence Criteria             o    2.50e-03 *    1.70e-03 *    1.00e-02 *    6.70e-03 *
  ---------------------------------------------------------------------------------------------
      5   -1188.11850793   -2.07e-06 o    7.43e-04 *    1.26e-04 *    9.16e-03 *    2.09e-03 *  ~
  ---------------------------------------------------------------------------------------------


  **** Optimization is complete! (in 5 steps) ****

  ==> Optimization Summary <==

  Measures of convergence in internal coordinates in au.
  --------------------------------------------------------------------------------------------------------------- ~
   Step         Total Energy             Delta E       MAX Force       RMS Force        MAX Disp        RMS Disp  ~
  --------------------------------------------------------------------------------------------------------------- ~
      1   -1188.118420547357  -1188.118420547357      0.00361722      0.00058869      0.02475742      0.00597315  ~
      2   -1188.118461241669     -0.000040694312      0.00215412      0.00031131      0.04676244      0.01056794  ~
      3   -1188.118482541879     -0.000021300210      0.00164900      0.00042909      0.01240477      0.00352122  ~
      4   -1188.118505863566     -0.000023321686      0.00048794      0.00013040      0.02330735      0.00567891  ~
      5   -1188.118507928768     -0.000002065203      0.00074252      0.00012576      0.00915902      0.00209190  ~
  --------------------------------------------------------------------------------------------------------------- ~

	Writing optimization data to binary file.
	Final energy is  -1188.1185079287684
	Final (previous) structure:
	Cartesian Geometry (in Angstrom)
	    N    -1.0694372706  -1.4716909851  -0.1141195297
	    C    -2.3850684320  -1.0999276377  -0.0151870046
	    C    -2.5970259271   0.3769488017   0.3862611327
	    F    -3.7966254315   0.7894662560  -0.0324967044
	    F    -2.5886609501   0.3948744588   1.7611935681
	    C    -1.4865216786   1.3639491035  -0.0536024669
	    C    -0.1406519223   0.7826880054  -0.1134750083
	    C     0.9885065885   1.6026919924  -0.1770938293
	    C     2.2656067749   1.0729305941  -0.2424740425
	    C     2.4382424956  -0.3191406339  -0.2672606848
	    C     1.3138023754  -1.1515604491  -0.2011671090
	    C     0.0348216444  -0.6118700610  -0.1328794903
	    S     3.9764308849  -1.1852614583  -0.3293180247
	    C     5.2989708586   0.0575911102  -0.2205460425
	    O    -3.3055620179  -1.8701118009  -0.1543019937
	    O    -1.7578694900   2.5237034606  -0.2652964976
	    H     3.1082207747   1.7512123612  -0.2834529620
	    H     0.8394754412   2.6781140914  -0.1653920269
	    H    -0.9178742521  -2.4574442496  -0.2901160457
	    H     1.4422419670  -2.2312180816  -0.2056968180
	    H     4.9139159134   1.0757343097  -0.2454072501
	    H     5.8455949003  -0.0838714008   0.7137028662
	    H     5.9743723174  -0.0805027407  -1.0665046117
	Saving final (previous) structure.
			--------------------------
			 OPTKING Finished Execution 
			--------------------------

    Final optimized geometry and variables:
    Molecular point group: c1
    Full point group: C1

    Geometry (in Angstrom), charge = 0, multiplicity = 1:

    N           -1.069437274833    -1.471690990873    -0.114119530135
    C           -2.385068441424    -1.099927642042    -0.015187004649
    C           -2.597025937301     0.376948803185     0.386261134237
    F           -3.796625446433     0.789466259056    -0.032496704539
    F           -2.588660960256     0.394874460324     1.761193575044
    C           -1.486521684422     1.363949108897    -0.053602467121
    C           -0.140651922885     0.782688008471    -0.113475008745
    C            0.988506592404     1.602691998729    -0.177093829989
    C            2.265606783828     1.072930598351    -0.242474043440
    C            2.438242505172    -0.319140635186    -0.267260685856
    C            1.313802380519    -1.151560453651    -0.201167109765
    C            0.034821644586    -0.611870063428    -0.132879490865
    S            3.976430900484    -1.185261462960    -0.329318026001
    C            5.298970879477     0.057591110453    -0.220546043347
    O           -3.305562030883    -1.870111808250    -0.154301994290
    O           -1.757869496881     2.523703470483    -0.265296498603
    H            3.108220786917     1.751212368123    -0.283452963119
    H            0.839475444536     2.678114101879    -0.165392027513
    H           -0.917874255701    -2.457444259230    -0.290116046839
    H            1.442241972659    -2.231218090328    -0.205696818786
    H            4.913915932711     1.075734313879    -0.245407251052
    H            5.845594923322    -0.083871401167     0.713702868993
    H            5.974372340870    -0.080502741007    -1.066504615896

	Removing binary optimization data file.
	Cleaning optimization helper files.

    Psi4 stopped on: Tuesday, 22 June 2021 03:41AM
    Psi4 wall time for execution: 0:23:25.08

*** Psi4 exiting successfully. Buy a developer a beer!
