
    -----------------------------------------------------------------------
          Psi4: An Open-Source Ab Initio Electronic Structure Package
                               Psi4 1.3.2 release

                         Git: Rev {HEAD} ecbda83 


    R. M. Parrish, L. A. Burns, D. G. A. Smith, A. C. Simmonett,
    A. E. DePrince III, E. G. Hohenstein, U. Bozkaya, A. Yu. Sokolov,
    R. Di Remigio, R. M. Richard, J. F. Gonthier, A. M. James,
    H. R. McAlexander, A. Kumar, M. Saitow, X. Wang, B. P. Pritchard,
    P. Verma, H. F. Schaefer III, K. Patkowski, R. A. King, E. F. Valeev,
    F. A. Evangelista, J. M. Turney, T. D. Crawford, and C. D. Sherrill,
    J. Chem. Theory Comput. 13(7) pp 3185--3197 (2017).
    (doi: 10.1021/acs.jctc.7b00174)


                         Additional Contributions by
    P. Kraus, H. Kruse, M. H. Lechner, M. C. Schieber, R. A. Shaw,
    A. Alenaizan, R. Galvelis, Z. L. Glick, S. Lehtola, and J. P. Misiewicz

    -----------------------------------------------------------------------


    Psi4 started on: Tuesday, 22 June 2021 07:37AM

    Process ID: 31982
    Host:       cpu-spot-dy-c5n2xlarge-1
    PSIDATADIR: /fsx/users/francis/anaconda3/envs/poltype-dev/share/psi4
    Memory:     500.0 MiB
    Threads:    1
    
  ==> Input File <==

--------------------------------------------------------------------------
molecule { 
0 1
 N   -0.979699   -1.513250    0.246896
 C   -2.296918   -1.182257    0.420547
 C   -2.612721    0.333938    0.430069
 F   -3.695076    0.538848   -0.344437
 F   -2.939733    0.653461    1.715552
 C   -1.482769    1.310162   -0.001473
 C   -0.135840    0.743829   -0.125869
 C    0.957442    1.577630   -0.387264
 C    2.237305    1.070479   -0.518078
 C    2.448032   -0.313936   -0.396487
 C    1.365528   -1.157848   -0.131958
 C    0.081462   -0.638679   -0.002471
 S    4.025656   -1.089385   -0.516658
 C    5.172074    0.299600   -0.668778
 O   -3.164146   -2.007178    0.592313
 O   -1.759934    2.475900   -0.176061
 H    3.060171    1.744493   -0.723380
 H    0.769807    2.642725   -0.485559
 H   -0.786453   -2.506868    0.283924
 H    1.528206   -2.227616   -0.024388
 H    5.042581    1.015822    0.146449
 H    6.174387   -0.129594   -0.606399
 H    5.066234    0.806405   -1.631309
}
memory 16GB
set_num_threads(8)
psi4_io.set_default_path("/scratch/Psi4-ligand")
set freeze_core True
E, wfn = energy('wb97x-d/6-311++g**',return_wfn=True)
oeprop(wfn,"WIBERG_LOWDIN_INDICES")
clean()
--------------------------------------------------------------------------

  Memory set to  14.901 GiB by Python driver.
  Threads set to 8 by Python driver.

*** tstart() called on cpu-spot-dy-c5n2xlarge-1
*** at Tue Jun 22 07:37:20 2021

   => Loading Basis Set <=

    Name: 6-311++G**
    Role: ORBITAL
    Keyword: BASIS
    atoms 1             entry N          line   140 file /fsx/users/francis/anaconda3/envs/poltype-dev/share/psi4/basis/6-311ppgss.gbs 
    atoms 2-3, 6-12, 14 entry C          line   119 file /fsx/users/francis/anaconda3/envs/poltype-dev/share/psi4/basis/6-311ppgss.gbs 
    atoms 4-5           entry F          line   182 file /fsx/users/francis/anaconda3/envs/poltype-dev/share/psi4/basis/6-311ppgss.gbs 
    atoms 13            entry S          line   419 file /fsx/users/francis/anaconda3/envs/poltype-dev/share/psi4/basis/6-311ppgss.gbs 
    atoms 15-16         entry O          line   161 file /fsx/users/francis/anaconda3/envs/poltype-dev/share/psi4/basis/6-311ppgss.gbs 
    atoms 17-23         entry H          line    42 file /fsx/users/francis/anaconda3/envs/poltype-dev/share/psi4/basis/6-311ppgss.gbs 


         ---------------------------------------------------------
                                   SCF
               by Justin Turney, Rob Parrish, Andy Simmonett
                          and Daniel G. A. Smith
                              RKS Reference
                        8 Threads,  15258 MiB Core
         ---------------------------------------------------------

  ==> Geometry <==

    Molecular point group: c1
    Full point group: C1

    Geometry (in Angstrom), charge = 0, multiplicity = 1:

       Center              X                  Y                   Z               Mass       
    ------------   -----------------  -----------------  -----------------  -----------------
         N           -0.979699043659    -1.513249997916     0.246896049029    14.003074004430
         C           -2.296918043659    -1.182256997916     0.420547049029    12.000000000000
         C           -2.612721043659     0.333938002084     0.430069049029    12.000000000000
         F           -3.695076043659     0.538848002084    -0.344436950971    18.998403162730
         F           -2.939733043659     0.653461002084     1.715552049029    18.998403162730
         C           -1.482769043659     1.310162002084    -0.001472950971    12.000000000000
         C           -0.135840043659     0.743829002084    -0.125868950971    12.000000000000
         C            0.957441956341     1.577630002084    -0.387263950971    12.000000000000
         C            2.237304956341     1.070479002084    -0.518077950971    12.000000000000
         C            2.448031956341    -0.313935997916    -0.396486950971    12.000000000000
         C            1.365527956341    -1.157847997916    -0.131957950971    12.000000000000
         C            0.081461956341    -0.638678997916    -0.002470950971    12.000000000000
         S            4.025655956341    -1.089384997916    -0.516657950971    31.972071174400
         C            5.172073956341     0.299600002084    -0.668777950971    12.000000000000
         O           -3.164146043659    -2.007177997916     0.592313049029    15.994914619570
         O           -1.759934043659     2.475900002084    -0.176060950971    15.994914619570
         H            3.060170956341     1.744493002084    -0.723379950971     1.007825032230
         H            0.769806956341     2.642725002084    -0.485558950971     1.007825032230
         H           -0.786453043659    -2.506867997916     0.283924049029     1.007825032230
         H            1.528205956341    -2.227615997916    -0.024387950971     1.007825032230
         H            5.042580956341     1.015822002084     0.146449049029     1.007825032230
         H            6.174386956341    -0.129593997916    -0.606398950971     1.007825032230
         H            5.066233956341     0.806405002084    -1.631308950971     1.007825032230

  Running in c1 symmetry.

  Rotational constants: A =      0.03948  B =      0.00833  C =      0.00716 [cm^-1]
  Rotational constants: A =   1183.69770  B =    249.63920  C =    214.79294 [MHz]
  Nuclear repulsion = 1188.784361448196705

  Charge       = 0
  Multiplicity = 1
  Electrons    = 124
  Nalpha       = 62
  Nbeta        = 62

  ==> Algorithm <==

  SCF Algorithm Type is DF.
  DIIS enabled.
  MOM disabled.
  Fractional occupation disabled.
  Guess Type is SAD.
  Energy threshold   = 1.00e-06
  Density threshold  = 1.00e-06
  Integral threshold = 0.00e+00

  ==> Primary Basis <==

  Basis Set: 6-311++G**
    Blend: 6-311++G**
    Number of shells: 199
    Number of basis function: 409
    Number of Cartesian functions: 425
    Spherical Harmonics?: true
    Max angular momentum: 2

  ==> DFT Potential <==

   => Composite Functional: WB97X-D <= 

    wB97X-D Hyb-GGA Exchange-Correlation Functional

    J.-D. Chai and M. Head-Gordon, Phys. Chem. Chem. Phys. 10, 6615 (2008)

    Deriv               =              1
    GGA                 =           TRUE
    Meta                =          FALSE

    Exchange Hybrid     =           TRUE
    MP2 Hybrid          =          FALSE

   => Exchange-Correlation Functionals <=

    1.0000   wB97D range-separated functional

   => Exact (HF) Exchange <=

    0.7780            HF,LR [omega = 0.2000]
    0.2220               HF 

   => Molecular Quadrature <=

    Radial Scheme          =       TREUTLER
    Pruning Scheme         =           FLAT
    Nuclear Scheme         =       TREUTLER

    BS radius alpha        =              1
    Pruning alpha          =              1
    Radial Points          =             75
    Spherical Points       =            302
    Total Points           =         520867
    Total Blocks           =           3859
    Max Points             =            256
    Max Functions          =            315

   => WB97X-D: Empirical Dispersion <=

    Chai and Head-Gordon Dispersion Correction
    Chai, J.-D.; Head-Gordon, M. (2010), J. Chem. Phys., 132: 6615-6620

        s6 =       1.000000

   => Loading Basis Set <=

    Name: (6-311++G** AUX)
    Role: JKFIT
    Keyword: DF_BASIS_SCF
    atoms 1             entry N          line   224 file /fsx/users/francis/anaconda3/envs/poltype-dev/share/psi4/basis/aug-cc-pvtz-jkfit.gbs 
    atoms 2-3, 6-12, 14 entry C          line   162 file /fsx/users/francis/anaconda3/envs/poltype-dev/share/psi4/basis/aug-cc-pvtz-jkfit.gbs 
    atoms 4-5           entry F          line   348 file /fsx/users/francis/anaconda3/envs/poltype-dev/share/psi4/basis/aug-cc-pvtz-jkfit.gbs 
    atoms 13            entry S          line   730 file /fsx/users/francis/anaconda3/envs/poltype-dev/share/psi4/basis/aug-cc-pvtz-jkfit.gbs 
    atoms 15-16         entry O          line   286 file /fsx/users/francis/anaconda3/envs/poltype-dev/share/psi4/basis/aug-cc-pvtz-jkfit.gbs 
    atoms 17-23         entry H          line    70 file /fsx/users/francis/anaconda3/envs/poltype-dev/share/psi4/basis/aug-cc-pvtz-jkfit.gbs 

  ==> Pre-Iterations <==

   -------------------------------------------------------
    Irrep   Nso     Nmo     Nalpha   Nbeta   Ndocc  Nsocc
   -------------------------------------------------------
     A        409     409       0       0       0       0
   -------------------------------------------------------
    Total     409     409      62      62      62       0
   -------------------------------------------------------

  ==> Integral Setup <==

  ==> DiskDFJK: Density-Fitted J/K Matrices <==

    J tasked:                  Yes
    K tasked:                  Yes
    wK tasked:                 Yes
    Omega:               2.000E-01
    OpenMP threads:              8
    Integrals threads:           8
    Memory [MiB]:             7961
    Algorithm:                Core
    Integral Cache:           NONE
    Schwarz Cutoff:          1E-12
    Fitting Condition:       1E-10

   => Auxiliary Basis Set <=

  Basis Set: (6-311++G** AUX)
    Blend: AUG-CC-PVTZ-JKFIT
    Number of shells: 590
    Number of basis function: 2028
    Number of Cartesian functions: 2530
    Spherical Harmonics?: true
    Max angular momentum: 4

  Cached 100.0% of DFT collocation blocks in 3.401 [GiB].

  Minimum eigenvalue in the overlap matrix is 2.4015206944E-07.
  Using Symmetric Orthogonalization.

  SCF Guess: Superposition of Atomic Densities via on-the-fly atomic UHF.

  ==> Iterations <==

                           Total Energy        Delta E     RMS |[F,P]|

   @DF-RKS iter SAD: -1187.92173703398566   -1.18792e+03   0.00000e+00 
   @DF-RKS iter   1: -1187.71112260484165    2.10614e-01   2.91209e-03 DIIS
   @DF-RKS iter   2: -1187.75885292263933   -4.77303e-02   2.98217e-03 DIIS
   @DF-RKS iter   3: -1188.30570708940354   -5.46854e-01   6.55314e-04 DIIS
   @DF-RKS iter   4: -1188.32970008361963   -2.39930e-02   2.39051e-04 DIIS
   @DF-RKS iter   5: -1188.33375247414324   -4.05239e-03   6.23444e-05 DIIS
   @DF-RKS iter   6: -1188.33418549645921   -4.33022e-04   1.88029e-05 DIIS
   @DF-RKS iter   7: -1188.33424132447954   -5.58280e-05   7.97421e-06 DIIS
   @DF-RKS iter   8: -1188.33425760708838   -1.62826e-05   3.28660e-06 DIIS
   @DF-RKS iter   9: -1188.33426068395329   -3.07686e-06   1.47974e-06 DIIS
   @DF-RKS iter  10: -1188.33426102465455   -3.40701e-07   5.79018e-07 DIIS
  Energy and wave function converged.


  ==> Post-Iterations <==

    Orbital Energies [Eh]
    ---------------------

    Doubly Occupied:                                                      

       1A    -89.054047     2A    -24.839878     3A    -24.838803  
       4A    -19.269765     5A    -19.260500     6A    -14.516761  
       7A    -10.485087     8A    -10.436545     9A    -10.411609  
      10A    -10.390840    11A    -10.371997    12A    -10.341608  
      13A    -10.334807    14A    -10.331400    15A    -10.330793  
      16A    -10.324536    17A     -8.094706    18A     -6.044156  
      19A     -6.039756    20A     -6.033878    21A     -1.389593  
      22A     -1.328129    23A     -1.192367    24A     -1.180518  
      25A     -1.098542    26A     -1.006740    27A     -0.945363  
      28A     -0.907008    29A     -0.888530    30A     -0.868619  
      31A     -0.800074    32A     -0.765787    33A     -0.753685  
      34A     -0.745787    35A     -0.697404    36A     -0.683828  
      37A     -0.670066    38A     -0.646877    39A     -0.630306  
      40A     -0.593272    41A     -0.588600    42A     -0.569562  
      43A     -0.563977    44A     -0.558000    45A     -0.557121  
      46A     -0.553896    47A     -0.549395    48A     -0.535381  
      49A     -0.520103    50A     -0.516299    51A     -0.508639  
      52A     -0.498932    53A     -0.490409    54A     -0.489489  
      55A     -0.475757    56A     -0.443434    57A     -0.434721  
      58A     -0.399271    59A     -0.395443    60A     -0.364383  
      61A     -0.341717    62A     -0.320313  

    Virtual:                                                              

      63A     -0.043404    64A      0.012830    65A      0.025427  
      66A      0.033460    67A      0.045029    68A      0.053357  
      69A      0.061813    70A      0.064658    71A      0.070310  
      72A      0.072930    73A      0.075962    74A      0.086793  
      75A      0.096784    76A      0.100925    77A      0.103261  
      78A      0.105323    79A      0.108530    80A      0.120079  
      81A      0.126562    82A      0.129278    83A      0.132302  
      84A      0.137013    85A      0.141915    86A      0.149464  
      87A      0.150952    88A      0.159051    89A      0.162458  
      90A      0.164885    91A      0.169991    92A      0.172958  
      93A      0.175339    94A      0.176221    95A      0.182879  
      96A      0.183764    97A      0.192936    98A      0.195506  
      99A      0.197899   100A      0.203344   101A      0.209378  
     102A      0.209892   103A      0.212394   104A      0.217027  
     105A      0.218775   106A      0.226573   107A      0.228523  
     108A      0.235295   109A      0.237271   110A      0.247548  
     111A      0.252537   112A      0.255794   113A      0.262662  
     114A      0.264190   115A      0.268954   116A      0.276158  
     117A      0.280646   118A      0.286178   119A      0.288281  
     120A      0.290292   121A      0.294768   122A      0.303312  
     123A      0.308905   124A      0.313300   125A      0.315502  
     126A      0.318146   127A      0.326015   128A      0.335735  
     129A      0.339866   130A      0.342906   131A      0.347507  
     132A      0.349639   133A      0.360028   134A      0.365879  
     135A      0.369779   136A      0.375154   137A      0.376371  
     138A      0.379954   139A      0.385487   140A      0.389086  
     141A      0.396907   142A      0.402678   143A      0.409833  
     144A      0.413080   145A      0.423157   146A      0.432559  
     147A      0.434186   148A      0.444073   149A      0.447453  
     150A      0.452802   151A      0.464078   152A      0.468528  
     153A      0.471799   154A      0.482460   155A      0.486817  
     156A      0.501563   157A      0.508250   158A      0.525826  
     159A      0.537978   160A      0.541801   161A      0.546225  
     162A      0.562771   163A      0.567725   164A      0.586537  
     165A      0.595718   166A      0.607838   167A      0.612557  
     168A      0.623975   169A      0.636532   170A      0.639845  
     171A      0.647259   172A      0.656048   173A      0.657780  
     174A      0.674330   175A      0.675828   176A      0.692102  
     177A      0.703566   178A      0.709677   179A      0.720304  
     180A      0.736216   181A      0.744798   182A      0.752194  
     183A      0.754836   184A      0.762530   185A      0.767506  
     186A      0.771782   187A      0.785505   188A      0.789055  
     189A      0.804824   190A      0.817131   191A      0.826163  
     192A      0.843594   193A      0.849068   194A      0.859874  
     195A      0.869750   196A      0.872967   197A      0.884084  
     198A      0.902200   199A      0.913738   200A      0.928575  
     201A      0.938837   202A      0.948060   203A      0.953738  
     204A      0.967426   205A      0.973116   206A      0.986418  
     207A      0.993790   208A      1.007544   209A      1.013959  
     210A      1.040297   211A      1.045904   212A      1.052301  
     213A      1.059034   214A      1.072895   215A      1.103519  
     216A      1.106477   217A      1.114948   218A      1.134925  
     219A      1.150198   220A      1.158454   221A      1.174563  
     222A      1.178004   223A      1.190875   224A      1.207707  
     225A      1.218331   226A      1.222209   227A      1.241734  
     228A      1.260343   229A      1.270940   230A      1.292482  
     231A      1.295206   232A      1.317845   233A      1.323750  
     234A      1.333735   235A      1.360248   236A      1.387861  
     237A      1.408626   238A      1.465854   239A      1.484823  
     240A      1.496294   241A      1.498751   242A      1.504534  
     243A      1.527531   244A      1.543833   245A      1.554172  
     246A      1.567993   247A      1.580851   248A      1.586743  
     249A      1.599882   250A      1.606586   251A      1.612547  
     252A      1.616684   253A      1.638154   254A      1.642723  
     255A      1.657072   256A      1.668762   257A      1.673392  
     258A      1.697469   259A      1.701549   260A      1.706879  
     261A      1.723686   262A      1.769183   263A      1.773808  
     264A      1.783774   265A      1.797086   266A      1.805440  
     267A      1.816680   268A      1.826993   269A      1.853659  
     270A      1.857211   271A      1.877817   272A      1.891578  
     273A      1.911314   274A      1.930832   275A      1.945784  
     276A      1.953506   277A      1.991063   278A      1.998888  
     279A      2.005522   280A      2.016719   281A      2.030734  
     282A      2.039270   283A      2.065515   284A      2.067093  
     285A      2.083470   286A      2.085196   287A      2.093505  
     288A      2.125975   289A      2.160127   290A      2.174496  
     291A      2.195561   292A      2.207772   293A      2.224633  
     294A      2.244477   295A      2.260242   296A      2.302226  
     297A      2.312705   298A      2.322714   299A      2.338031  
     300A      2.354390   301A      2.425715   302A      2.481189  
     303A      2.516260   304A      2.521023   305A      2.538771  
     306A      2.549301   307A      2.576296   308A      2.596841  
     309A      2.612406   310A      2.639945   311A      2.668299  
     312A      2.721147   313A      2.748655   314A      2.780074  
     315A      2.790712   316A      2.791771   317A      2.807027  
     318A      2.826393   319A      2.839624   320A      2.843599  
     321A      2.860293   322A      2.887782   323A      2.903958  
     324A      2.910635   325A      2.926060   326A      2.940982  
     327A      2.970357   328A      2.973769   329A      3.006307  
     330A      3.039285   331A      3.052957   332A      3.055399  
     333A      3.083144   334A      3.093698   335A      3.107903  
     336A      3.129544   337A      3.164662   338A      3.201011  
     339A      3.295036   340A      3.299056   341A      3.334686  
     342A      3.364899   343A      3.412411   344A      3.429323  
     345A      3.433468   346A      3.491507   347A      3.534875  
     348A      3.543621   349A      3.602090   350A      3.632381  
     351A      3.652353   352A      3.688947   353A      3.707975  
     354A      3.779543   355A      3.801047   356A      3.813438  
     357A      3.848282   358A      3.853091   359A      3.859431  
     360A      3.901728   361A      3.920537   362A      3.952428  
     363A      3.975709   364A      4.006633   365A      4.026707  
     366A      4.078010   367A      4.124537   368A      4.193124  
     369A      4.245788   370A      4.297108   371A      4.366611  
     372A      4.523147   373A      4.822257   374A      4.892360  
     375A      4.916262   376A      5.018281   377A      5.152075  
     378A      5.159937   379A      5.205832   380A      5.328440  
     381A      5.337421   382A      5.837744   383A      5.883859  
     384A      6.456888   385A      6.486311   386A      6.522720  
     387A      6.568557   388A      6.661133   389A      6.877290  
     390A      8.096501   391A     17.434730   392A     17.623440  
     393A     17.659453   394A     23.633721   395A     23.743740  
     396A     23.970167   397A     24.001181   398A     24.018388  
     399A     24.034032   400A     24.038100   401A     24.133932  
     402A     24.192209   403A     24.277006   404A     35.757973  
     405A     50.140024   406A     50.159967   407A     66.898125  
     408A     66.971161   409A    189.359235  

    Final Occupation by Irrep:
              A 
    DOCC [    62 ]

  @DF-RKS Final Energy: -1188.33426102465455

   => Energetics <=

    Nuclear Repulsion Energy =           1188.7843614481967052
    One-Electron Energy =               -3992.5266419838862930
    Two-Electron Energy =                1705.1604599422321371
    DFT Exchange-Correlation Energy =     -89.7386973764239002
    Empirical Dispersion Energy =          -0.0137430547732924
    VV10 Nonlocal Energy =                  0.0000000000000000
    Total Energy =                      -1188.3342610246547792

Computation Completed


Properties will be evaluated at   0.000000,   0.000000,   0.000000 [a0]

Properties computed using the SCF density matrix

  Nuclear Dipole Moment: [e a0]
     X:    25.8953      Y:     0.1144      Z:    -4.1563

  Electronic Dipole Moment: [e a0]
     X:   -22.6769      Y:    -0.4853      Z:     3.7139

  Dipole Moment: [e a0]
     X:     3.2183      Y:    -0.3710      Z:    -0.4425     Total:     3.2697

  Dipole Moment: [D]
     X:     8.1802      Y:    -0.9429      Z:    -1.1246     Total:     8.3108


*** tstop() called on cpu-spot-dy-c5n2xlarge-1 at Tue Jun 22 07:38:49 2021
Module time:
	user time   =     647.55 seconds =      10.79 minutes
	system time =      10.49 seconds =       0.17 minutes
	total time  =         89 seconds =       1.48 minutes
Total time:
	user time   =     647.55 seconds =      10.79 minutes
	system time =      10.49 seconds =       0.17 minutes
	total time  =         89 seconds =       1.48 minutes


Properties will be evaluated at   0.000000,   0.000000,   0.000000 [a0]
OEProp: No title given, name of density matrix used for the following properties is 'SCF density'


  Wiberg Bond Indices using Orthogonal Lowdin Orbitals:

  Irrep: 1 Size: 23 x 23

                 1                   2                   3                   4                   5

    1     0.00000000000000     1.32008386868712     0.10138157268306     0.01181839741400     0.01556524653371
    2     1.32008386868712     0.00000000000000     0.88334691760118     0.10945413829113     0.11166576577241
    3     0.10138157268306     0.88334691760118     0.00000000000000     1.38081758879912     1.34010775394596
    4     0.01181839741400     0.10945413829113     1.38081758879912     0.00000000000000     0.13784170966049
    5     0.01556524653371     0.11166576577241     1.34010775394596     0.13784170966049     0.00000000000000
    6     0.03399277766706     0.07409908470544     0.89626887092813     0.10646906465414     0.11094793543715
    7     0.11675295785643     0.03559307011561     0.09987331218444     0.01227545560363     0.01546408681935
    8     0.01508893471350     0.00372356099322     0.01350875674555     0.00197135524032     0.00218237220779
    9     0.01443683458955     0.00535464422528     0.00253700523920     0.00039529625261     0.00039794989071
   10     0.01738304627524     0.00307676893994     0.00150959893905     0.00033157927565     0.00063065412328
   11     0.13412622281416     0.02678428755425     0.00435666919273     0.00049900557714     0.00074677796870
   12     1.18969086494217     0.09728105548128     0.03148091032050     0.00383540823980     0.00597487021686
   13     0.00285941466786     0.00104455899573     0.00068927472819     0.00019600734574     0.00040869389295
   14     0.00045284513074     0.00016554546744     0.00009612923956     0.00001761434350     0.00002125114840
   15     0.24779049400007     2.29184168579599     0.15047732248608     0.04194669377394     0.03551717218433
   16     0.00481265650208     0.01593848412698     0.15948273132603     0.04456159424264     0.03882013503700
   17     0.00070553961436     0.00022050762091     0.00047842847572     0.00007308049777     0.00005749604153
   18     0.00129117168338     0.00048777264930     0.00210919640234     0.00036099857060     0.00028646730893
   19     0.91326527276666     0.07314983229277     0.01375594580539     0.00185138905982     0.00158717698528
   20     0.02341816086365     0.00232991603865     0.00073361477108     0.00011730739738     0.00010551378833
   21     0.00010845942039     0.00004424828025     0.00003524223452     0.00000587898779     0.00001056831695
   22     0.00007039564488     0.00002478018114     0.00001631688710     0.00000280253227     0.00000163562384
   23     0.00008582674906     0.00003834504176     0.00003549862961     0.00000868082979     0.00001109487058

                 6                   7                   8                   9                  10

    1     0.03399277766706     0.11675295785643     0.01508893471350     0.01443683458955     0.01738304627524
    2     0.07409908470544     0.03559307011561     0.00372356099322     0.00535464422528     0.00307676893994
    3     0.89626887092813     0.09987331218444     0.01350875674555     0.00253700523920     0.00150959893905
    4     0.10646906465414     0.01227545560363     0.00197135524032     0.00039529625261     0.00033157927565
    5     0.11094793543715     0.01546408681935     0.00218237220779     0.00039794989071     0.00063065412328
    6     0.00000000000000     1.06705811316016     0.12077805900851     0.02047180476442     0.01507491511876
    7     1.06705811316016     0.00000000000000     1.34079197618047     0.13183143014272     0.10747863588236
    8     0.12077805900851     1.34079197618047     0.00000000000000     1.50569805831923     0.13563626321687
    9     0.02047180476442     0.13183143014272     1.50569805831923     0.00000000000000     1.37004312758169
   10     0.01507491511876     0.10747863588236     0.13563626321687     1.37004312758169     0.00000000000000
   11     0.01582973135289     0.11957745909814     0.12153186376245     0.12520457410971     1.41850510070536
   12     0.11450096305589     1.27548579726178     0.12389067454197     0.10743032740605     0.12991089850441
   13     0.00650785994599     0.02190227944781     0.02487624560101     0.14440568514757     1.30891331013969
   14     0.00032675496757     0.00171460483121     0.00472471941464     0.04938962465877     0.08419018746437
   15     0.01539937353917     0.00901452222447     0.00106043552700     0.00455606075621     0.00198077045911
   16     2.31498655391761     0.16584714326583     0.07539255938113     0.00627299643598     0.01616045512221
   17     0.00149814700303     0.01232797873303     0.08297369438048     0.85925043443235     0.07377864346634
   18     0.02023891214355     0.07692971121759     0.85226581608790     0.08056746265367     0.01217505081755
   19     0.00257649646170     0.01256865367580     0.00170991652436     0.00133658066015     0.00199306788967
   20     0.00170122363979     0.01147831652559     0.00556375731956     0.01259689185219     0.07603950671144
   21     0.00017383195034     0.00083944707364     0.00131252779751     0.01633132739710     0.01595837174028
   22     0.00003208620801     0.00018917265602     0.00034211901670     0.00319809638041     0.01256374573453
   23     0.00018588912241     0.00078401543374     0.00089173324627     0.01261795623817     0.01255866906581

                11                  12                  13                  14                  15

    1     0.13412622281416     1.18969086494217     0.00285941466786     0.00045284513074     0.24779049400007
    2     0.02678428755425     0.09728105548128     0.00104455899573     0.00016554546744     2.29184168579599
    3     0.00435666919273     0.03148091032050     0.00068927472819     0.00009612923956     0.15047732248608
    4     0.00049900557714     0.00383540823980     0.00019600734574     0.00001761434350     0.04194669377394
    5     0.00074677796870     0.00597487021686     0.00040869389295     0.00002125114840     0.03551717218433
    6     0.01582973135289     0.11450096305589     0.00650785994599     0.00032675496757     0.01539937353917
    7     0.11957745909814     1.27548579726178     0.02190227944781     0.00171460483121     0.00901452222447
    8     0.12153186376245     0.12389067454197     0.02487624560101     0.00472471941464     0.00106043552700
    9     0.12520457410971     0.10743032740605     0.14440568514757     0.04938962465877     0.00455606075621
   10     1.41850510070536     0.12991089850441     1.30891331013969     0.08419018746437     0.00198077045911
   11     0.00000000000000     1.38938804450596     0.18080661442849     0.01876792309941     0.01250063446777
   12     1.38938804450596     0.00000000000000     0.02579850259041     0.00311891780351     0.03054329002056
   13     0.18080661442849     0.02579850259041     0.00000000000000     1.24460826983131     0.00084912572249
   14     0.01876792309941     0.00311891780351     1.24460826983131     0.00000000000000     0.00009471944931
   15     0.01250063446777     0.03054329002056     0.00084912572249     0.00009471944931     0.00000000000000
   16     0.00481500555760     0.04165085761563     0.00682043380171     0.00025828327645     0.00559313491584
   17     0.01203233999377     0.00518158124566     0.02094951251727     0.02322911728566     0.00016653865559
   18     0.00529954252297     0.01194804267141     0.00216992434917     0.00045556660049     0.00019404853940
   19     0.02040651142928     0.06555257777928     0.00033781088694     0.00006816734770     0.02858112665156
   20     0.85036959699405     0.07790669953785     0.03187395960945     0.00253172585655     0.00067309782265
   21     0.00217362372945     0.00059237993191     0.06228222896965     0.93746653075619     0.00003587597817
   22     0.00196841000129     0.00042978698982     0.07368924939207     0.94135596272690     0.00001069585548
   23     0.00213172131614     0.00053290723585     0.06561531107695     0.94110416380639     0.00003519041319

                16                  17                  18                  19                  20

    1     0.00481265650208     0.00070553961436     0.00129117168338     0.91326527276666     0.02341816086365
    2     0.01593848412698     0.00022050762091     0.00048777264930     0.07314983229277     0.00232991603865
    3     0.15948273132603     0.00047842847572     0.00210919640234     0.01375594580539     0.00073361477108
    4     0.04456159424264     0.00007308049777     0.00036099857060     0.00185138905982     0.00011730739738
    5     0.03882013503700     0.00005749604153     0.00028646730893     0.00158717698528     0.00010551378833
    6     2.31498655391761     0.00149814700303     0.02023891214355     0.00257649646170     0.00170122363979
    7     0.16584714326583     0.01232797873303     0.07692971121759     0.01256865367580     0.01147831652559
    8     0.07539255938113     0.08297369438048     0.85226581608790     0.00170991652436     0.00556375731956
    9     0.00627299643598     0.85925043443235     0.08056746265367     0.00133658066015     0.01259689185219
   10     0.01616045512221     0.07377864346634     0.01217505081755     0.00199306788967     0.07603950671144
   11     0.00481500555760     0.01203233999377     0.00529954252297     0.02040651142928     0.85036959699405
   12     0.04165085761563     0.00518158124566     0.01194804267141     0.06555257777928     0.07790669953785
   13     0.00682043380171     0.02094951251727     0.00216992434917     0.00033781088694     0.03187395960945
   14     0.00025828327645     0.02322911728566     0.00045556660049     0.00006816734770     0.00253172585655
   15     0.00559313491584     0.00016653865559     0.00019404853940     0.02858112665156     0.00067309782265
   16     0.00000000000000     0.00038790671415     0.02111565113224     0.00051776022107     0.00060051193706
   17     0.00038790671415     0.00000000000000     0.01028967571303     0.00010610781087     0.00117453484881
   18     0.02111565113224     0.01028967571303     0.00000000000000     0.00060811779102     0.00047998972413
   19     0.00051776022107     0.00010610781087     0.00060811779102     0.00000000000000     0.00652038264218
   20     0.00060051193706     0.00117453484881     0.00047998972413     0.00652038264218     0.00000000000000
   21     0.00019726684499     0.00737337201154     0.00009763494505     0.00001552962322     0.00040399874695
   22     0.00001719166625     0.00145348595440     0.00005415377743     0.00000866553560     0.00028873530188
   23     0.00020343418159     0.00596483957926     0.00007340248165     0.00001189848568     0.00041375650073

                21                  22                  23

    1     0.00010845942039     0.00007039564488     0.00008582674906
    2     0.00004424828025     0.00002478018114     0.00003834504176
    3     0.00003524223452     0.00001631688710     0.00003549862961
    4     0.00000587898779     0.00000280253227     0.00000868082979
    5     0.00001056831695     0.00000163562384     0.00001109487058
    6     0.00017383195034     0.00003208620801     0.00018588912241
    7     0.00083944707364     0.00018917265602     0.00078401543374
    8     0.00131252779751     0.00034211901670     0.00089173324627
    9     0.01633132739710     0.00319809638041     0.01261795623817
   10     0.01595837174028     0.01256374573453     0.01255866906581
   11     0.00217362372945     0.00196841000129     0.00213172131614
   12     0.00059237993191     0.00042978698982     0.00053290723585
   13     0.06228222896965     0.07368924939207     0.06561531107695
   14     0.93746653075619     0.94135596272690     0.94110416380639
   15     0.00003587597817     0.00001069585548     0.00003519041319
   16     0.00019726684499     0.00001719166625     0.00020343418159
   17     0.00737337201154     0.00145348595440     0.00596483957926
   18     0.00009763494505     0.00005415377743     0.00007340248165
   19     0.00001552962322     0.00000866553560     0.00001189848568
   20     0.00040399874695     0.00028873530188     0.00041375650073
   21     0.00000000000000     0.04179993229817     0.03768203517166
   22     0.04179993229817     0.00000000000000     0.04170827398740
   23     0.03768203517166     0.04170827398740     0.00000000000000



  Atomic Valences: 

 #  #
 Irrep: 1
      1:  4.1651810
      2:  5.0557488
      3:  5.0830987
      4:  1.8548510
      5:  1.8183523
      6:  4.9391184
      7:  4.6357781
      8:  4.4359154
      9:  4.4743242
     10:  4.8158924
     11:  4.4678217
     12:  4.7321254
     13:  3.2276043
     14:  4.2541586
     15:  2.8788620
     16:  2.9244527
     17:  1.1196730
     18:  1.0994983
     19:  1.1465290
     20:  1.1073212
     21:  1.1249403
     22:  1.1192257
     23:  1.1226946


    Psi4 stopped on: Tuesday, 22 June 2021 07:38AM
    Psi4 wall time for execution: 0:01:29.44

*** Psi4 exiting successfully. Buy a developer a beer!
