
Host: cpu-spot-dy-c5n2xlarge-1

Timers On : Mon Jun 21 22:11:15 2021
Timers Off: Mon Jun 21 22:23:12 2021

Wall Time:      717.15 seconds

                                                       Time (seconds)
Module                                       User      System        Wall        Calls
V: Grid                             :     73.767u      0.600s      5.978w      9 calls
JK: (A|mn)                          :    286.417u      0.000s     21.506w      9 calls
JK: (A|Q)^-1/2                      :     65.000u      0.867s      7.459w      9 calls
JK: (Q|mn)                          :     57.433u      0.017s      8.633w      9 calls
JK: (A|mn)^L                        :    118.033u      0.100s      8.871w      9 calls
JK: (A|Q)^-1                        :     64.933u      0.717s      7.428w      9 calls
JK: (Q|mn)^L                        :     55.233u      0.000s      8.280w      9 calls
JK: (A|mn)^R                        :    137.883u      0.117s     10.362w      9 calls
HF: Form core H                     :      1.000u      0.033s      0.083w      9 calls
HF: Form S/X                        :      1.917u      0.033s      0.144w      9 calls
HF: Guess                           :      9.767u      0.183s      0.751w      9 calls
SAD Guess                           :      9.600u      0.183s      0.735w      1 calls
HF: Form G                          :   5207.900u     68.233s    396.611w    111 calls
RV: Form V                          :   1241.183u      0.217s     93.207w    111 calls
Properties                          :    353.175p                         463238 calls
Functional                          :    114.816p                         463238 calls
V_xc                                :    420.630p                         428499 calls
JK: D                               :      0.217u      0.000s      0.029w    111 calls
JK: USO2AO                          :      0.717u      0.017s      0.039w    111 calls
JK: JK                              :   3964.783u     68.000s    303.251w    111 calls
JK: J                               :     36.333u      0.667s      3.208w    111 calls
JK: J1                              :     20.200u      0.417s      1.586w    111 calls
JK: J2                              :     15.033u      0.200s      1.560w    111 calls
JK: K                               :   1252.167u      3.150s     94.360w    111 calls
JK: K1                              :   1033.450u      0.217s     77.622w    111 calls
JK: K2                              :    218.617u      2.933s     16.720w    111 calls
JK: wK                              :   2205.850u      3.500s    165.920w    222 calls
JK: wK1                             :   1985.050u      0.617s    149.100w    444 calls
JK: wK2                             :    219.133u      2.800s     16.783w    222 calls
JK: AO2USO                          :      0.000u      0.000s      0.000w    111 calls
HF: Form F                          :      0.633u      0.050s      0.040w    111 calls
HF: Form D                          :      0.300u      0.000s      0.023w    111 calls
HF: DIIS                            :      9.800u      0.667s      0.800w    110 calls
DIISManager::add_entry              :      2.200u      0.200s      0.157w    102 calls
DIISManager::extrapolate            :      3.900u      0.383s      0.327w    102 calls
bMatrix setup                       :      1.800u      0.217s      0.154w    102 calls
bMatrix pseudoinverse               :      0.117u      0.000s      0.006w    102 calls
New vector                          :      1.983u      0.167s      0.165w    102 calls
HF: Form C                          :     21.683u      0.333s      1.647w    110 calls
Grad: V T Perturb                   :     45.183u      0.317s      3.414w      9 calls
Grad: S                             :      0.350u      0.000s      0.028w      9 calls
Grad: JK                            :   1749.817u     55.117s    175.299w      9 calls
JKGrad: Amn                         :    210.733u     13.233s     25.947w      9 calls
JKGrad: Awmn                        :    232.683u     13.283s     27.260w      9 calls
JKGrad: AB                          :     79.667u      2.433s      9.883w      9 calls
JKGrad: UV                          :     17.450u      1.933s      2.909w      9 calls
JKGrad: ABx                         :      9.650u      0.267s      1.053w      9 calls
JKGrad: Amnx                        :   1183.300u     23.200s    106.965w      9 calls
Grad: XC                            :    375.417u      0.083s     28.195w      9 calls
V_xc gradient                       :     77.658p                          34739 calls

--------------------------------------------------------------------------------------
V: Grid                             :     73.767u      0.600s      5.978w      9 calls
JK: (A|mn)                          :    286.417u      0.000s     21.506w      9 calls
JK: (A|Q)^-1/2                      :     65.000u      0.867s      7.459w      9 calls
JK: (Q|mn)                          :     57.433u      0.017s      8.633w      9 calls
JK: (A|mn)^L                        :    118.033u      0.100s      8.871w      9 calls
JK: (A|Q)^-1                        :     64.933u      0.717s      7.428w      9 calls
JK: (Q|mn)^L                        :     55.233u      0.000s      8.280w      9 calls
JK: (A|mn)^R                        :    137.883u      0.117s     10.362w      9 calls
HF: Form core H                     :      1.000u      0.033s      0.083w      9 calls
HF: Form S/X                        :      1.917u      0.033s      0.144w      9 calls
HF: Guess                           :      9.767u      0.183s      0.751w      9 calls
| SAD Guess                         :      9.600u      0.183s      0.735w      1 calls
HF: Form G                          :   5207.900u     68.233s    396.611w    111 calls
| RV: Form V                        :   1241.183u      0.217s     93.207w    111 calls
| | Properties                      :    216.148p                         428499 calls
| | Functional                      :    105.968p                         428499 calls
| | V_xc                            :    420.630p                         428499 calls
| JK: D                             :      0.217u      0.000s      0.029w    111 calls
| JK: USO2AO                        :      0.717u      0.017s      0.039w    111 calls
| JK: JK                            :   3964.783u     68.000s    303.251w    111 calls
| | JK: J                           :     36.333u      0.667s      3.208w    111 calls
| | | JK: J1                        :     20.200u      0.417s      1.586w    111 calls
| | | JK: J2                        :     15.033u      0.200s      1.560w    111 calls
| | JK: K                           :   1252.167u      3.150s     94.360w    111 calls
| | | JK: K1                        :   1033.450u      0.217s     77.622w    111 calls
| | | JK: K2                        :    218.617u      2.933s     16.720w    111 calls
| | JK: wK                          :   2205.850u      3.500s    165.920w    222 calls
| | | JK: wK1                       :   1985.050u      0.617s    149.100w    444 calls
| | | JK: wK2                       :    219.133u      2.800s     16.783w    222 calls
| JK: AO2USO                        :      0.000u      0.000s      0.000w    111 calls
HF: Form F                          :      0.633u      0.050s      0.040w    111 calls
HF: Form D                          :      0.300u      0.000s      0.023w    111 calls
HF: DIIS                            :      9.800u      0.667s      0.800w    110 calls
| DIISManager::add_entry            :      2.200u      0.200s      0.157w    102 calls
| DIISManager::extrapolate          :      3.900u      0.383s      0.327w    102 calls
| | bMatrix setup                   :      1.800u      0.217s      0.154w    102 calls
| | bMatrix pseudoinverse           :      0.117u      0.000s      0.006w    102 calls
| | New vector                      :      1.983u      0.167s      0.165w    102 calls
HF: Form C                          :     21.683u      0.333s      1.647w    110 calls
Grad: V T Perturb                   :     45.183u      0.317s      3.414w      9 calls
Grad: S                             :      0.350u      0.000s      0.028w      9 calls
Grad: JK                            :   1749.817u     55.117s    175.299w      9 calls
| JKGrad: Amn                       :    210.733u     13.233s     25.947w      9 calls
| JKGrad: Awmn                      :    232.683u     13.283s     27.260w      9 calls
| JKGrad: AB                        :     79.667u      2.433s      9.883w      9 calls
| JKGrad: UV                        :     17.450u      1.933s      2.909w      9 calls
| JKGrad: ABx                       :      9.650u      0.267s      1.053w      9 calls
| JKGrad: Amnx                      :   1183.300u     23.200s    106.965w      9 calls
Grad: XC                            :    375.417u      0.083s     28.195w      9 calls
| Properties                        :    137.027p                          34739 calls
| Functional                        :      8.848p                          34739 calls
| V_xc gradient                     :     77.658p                          34739 calls

**************************************************************************************

Host: cpu-spot-dy-c5n2xlarge-1

Timers On : Mon Jun 21 22:23:17 2021
Timers Off: Mon Jun 21 22:43:56 2021

Wall Time:     1238.49 seconds

                                                       Time (seconds)
Module                                       User      System        Wall        Calls
V: Grid                             :    126.183u      1.083s     10.174w     15 calls
JK: (A|mn)                          :    471.267u      0.067s     35.384w     15 calls
JK: (A|Q)^-1/2                      :    107.067u      1.267s     12.126w     15 calls
JK: (Q|mn)                          :     95.767u      0.000s     14.389w     15 calls
JK: (A|mn)^L                        :    194.900u      0.133s     14.647w     15 calls
JK: (A|Q)^-1                        :    107.350u      1.267s     12.175w     15 calls
JK: (Q|mn)^L                        :     91.950u      0.000s     13.798w     15 calls
JK: (A|mn)^R                        :    227.150u      0.150s     17.065w     15 calls
HF: Form core H                     :      1.550u      0.117s      0.132w     15 calls
HF: Form S/X                        :      3.050u      0.083s      0.233w     15 calls
HF: Guess                           :      9.783u      0.233s      0.751w     15 calls
SAD Guess                           :      9.533u      0.217s      0.731w      1 calls
HF: Form G                          :   9248.550u    120.733s    703.530w    196 calls
RV: Form V                          :   2213.917u      0.517s    166.251w    196 calls
Properties                          :    618.384p                         815973 calls
Functional                          :    202.818p                         815973 calls
V_xc                                :    748.665p                         757968 calls
JK: D                               :      0.617u      0.017s      0.051w    196 calls
JK: USO2AO                          :      0.950u      0.050s      0.069w    196 calls
JK: JK                              :   7031.167u    120.117s    537.010w    196 calls
JK: J                               :     73.533u      1.167s      5.754w    196 calls
JK: J1                              :     36.133u      0.567s      2.825w    196 calls
JK: J2                              :     35.817u      0.583s      2.817w    196 calls
JK: K                               :   2235.900u      6.150s    168.435w    196 calls
JK: K1                              :   1848.767u      0.667s    138.854w    196 calls
JK: K2                              :    386.767u      5.483s     29.549w    196 calls
JK: wK                              :   3896.800u      6.383s    293.148w    392 calls
JK: wK1                             :   3506.283u      1.233s    263.374w    784 calls
JK: wK2                             :    387.767u      5.050s     29.710w    392 calls
JK: AO2USO                          :      0.033u      0.000s      0.000w    196 calls
HF: Form F                          :      0.817u      0.000s      0.070w    196 calls
HF: Form D                          :      0.583u      0.017s      0.041w    196 calls
HF: DIIS                            :     17.817u      1.283s      1.434w    195 calls
DIISManager::add_entry              :      3.767u      0.300s      0.271w    181 calls
DIISManager::extrapolate            :      7.217u      0.867s      0.603w    181 calls
bMatrix setup                       :      3.150u      0.600s      0.286w    181 calls
bMatrix pseudoinverse               :      0.133u      0.000s      0.012w    181 calls
New vector                          :      3.867u      0.267s      0.304w    181 calls
HF: Form C                          :     37.517u      0.867s      2.879w    195 calls
Grad: V T Perturb                   :     75.100u      0.467s      5.677w     15 calls
Grad: S                             :      0.583u      0.017s      0.048w     15 calls
Grad: JK                            :   2914.633u     92.267s    291.738w     15 calls
JKGrad: Amn                         :    352.067u     22.167s     43.241w     15 calls
JKGrad: Awmn                        :    388.850u     21.533s     45.388w     15 calls
JKGrad: AB                          :    132.383u      4.083s     16.340w     15 calls
JKGrad: UV                          :     29.533u      3.517s      4.960w     15 calls
JKGrad: ABx                         :     16.033u      0.500s      1.751w     15 calls
JKGrad: Amnx                        :   1968.633u     39.183s    177.924w     15 calls
Grad: XC                            :    679.867u      0.250s     51.057w     15 calls
V_xc gradient                       :    159.475p                          58005 calls

--------------------------------------------------------------------------------------
V: Grid                             :    126.183u      1.083s     10.174w     15 calls
JK: (A|mn)                          :    471.267u      0.067s     35.384w     15 calls
JK: (A|Q)^-1/2                      :    107.067u      1.267s     12.126w     15 calls
JK: (Q|mn)                          :     95.767u      0.000s     14.389w     15 calls
JK: (A|mn)^L                        :    194.900u      0.133s     14.647w     15 calls
JK: (A|Q)^-1                        :    107.350u      1.267s     12.175w     15 calls
JK: (Q|mn)^L                        :     91.950u      0.000s     13.798w     15 calls
JK: (A|mn)^R                        :    227.150u      0.150s     17.065w     15 calls
HF: Form core H                     :      1.550u      0.117s      0.132w     15 calls
HF: Form S/X                        :      3.050u      0.083s      0.233w     15 calls
HF: Guess                           :      9.783u      0.233s      0.751w     15 calls
| SAD Guess                         :      9.533u      0.217s      0.731w      1 calls
HF: Form G                          :   9248.550u    120.733s    703.530w    196 calls
| RV: Form V                        :   2213.917u      0.517s    166.251w    196 calls
| | Properties                      :    387.724p                         757968 calls
| | Functional                      :    188.064p                         757968 calls
| | V_xc                            :    748.665p                         757968 calls
| JK: D                             :      0.617u      0.017s      0.051w    196 calls
| JK: USO2AO                        :      0.950u      0.050s      0.069w    196 calls
| JK: JK                            :   7031.167u    120.117s    537.010w    196 calls
| | JK: J                           :     73.533u      1.167s      5.754w    196 calls
| | | JK: J1                        :     36.133u      0.567s      2.825w    196 calls
| | | JK: J2                        :     35.817u      0.583s      2.817w    196 calls
| | JK: K                           :   2235.900u      6.150s    168.435w    196 calls
| | | JK: K1                        :   1848.767u      0.667s    138.854w    196 calls
| | | JK: K2                        :    386.767u      5.483s     29.549w    196 calls
| | JK: wK                          :   3896.800u      6.383s    293.148w    392 calls
| | | JK: wK1                       :   3506.283u      1.233s    263.374w    784 calls
| | | JK: wK2                       :    387.767u      5.050s     29.710w    392 calls
| JK: AO2USO                        :      0.033u      0.000s      0.000w    196 calls
HF: Form F                          :      0.817u      0.000s      0.070w    196 calls
HF: Form D                          :      0.583u      0.017s      0.041w    196 calls
HF: DIIS                            :     17.817u      1.283s      1.434w    195 calls
| DIISManager::add_entry            :      3.767u      0.300s      0.271w    181 calls
| DIISManager::extrapolate          :      7.217u      0.867s      0.603w    181 calls
| | bMatrix setup                   :      3.150u      0.600s      0.286w    181 calls
| | bMatrix pseudoinverse           :      0.133u      0.000s      0.012w    181 calls
| | New vector                      :      3.867u      0.267s      0.304w    181 calls
HF: Form C                          :     37.517u      0.867s      2.879w    195 calls
Grad: V T Perturb                   :     75.100u      0.467s      5.677w     15 calls
Grad: S                             :      0.583u      0.017s      0.048w     15 calls
Grad: JK                            :   2914.633u     92.267s    291.738w     15 calls
| JKGrad: Amn                       :    352.067u     22.167s     43.241w     15 calls
| JKGrad: Awmn                      :    388.850u     21.533s     45.388w     15 calls
| JKGrad: AB                        :    132.383u      4.083s     16.340w     15 calls
| JKGrad: UV                        :     29.533u      3.517s      4.960w     15 calls
| JKGrad: ABx                       :     16.033u      0.500s      1.751w     15 calls
| JKGrad: Amnx                      :   1968.633u     39.183s    177.924w     15 calls
Grad: XC                            :    679.867u      0.250s     51.057w     15 calls
| Properties                        :    230.660p                          58005 calls
| Functional                        :     14.754p                          58005 calls
| V_xc gradient                     :    159.475p                          58005 calls

**************************************************************************************

Host: cpu-spot-dy-c5n2xlarge-1

Timers On : Mon Jun 21 22:44:01 2021
Timers Off: Mon Jun 21 23:02:36 2021

Wall Time:     1115.26 seconds

                                                       Time (seconds)
Module                                       User      System        Wall        Calls
V: Grid                             :    115.433u      0.967s      9.374w     14 calls
JK: (A|mn)                          :    446.017u      0.033s     33.485w     14 calls
JK: (A|Q)^-1/2                      :    103.367u      1.450s     11.898w     14 calls
JK: (Q|mn)                          :     90.100u      0.000s     13.544w     14 calls
JK: (A|mn)^L                        :    183.383u      0.117s     13.782w     14 calls
JK: (A|Q)^-1                        :    102.100u      1.400s     11.752w     14 calls
JK: (Q|mn)^L                        :     86.517u      0.000s     12.985w     14 calls
JK: (A|mn)^R                        :    213.450u      0.150s     16.033w     14 calls
HF: Form core H                     :      1.467u      0.083s      0.125w     14 calls
HF: Form S/X                        :      2.867u      0.100s      0.221w     14 calls
HF: Guess                           :      9.683u      0.300s      0.752w     14 calls
SAD Guess                           :      9.483u      0.300s      0.733w      1 calls
HF: Form G                          :   7995.483u    103.750s    608.667w    169 calls
RV: Form V                          :   1924.933u      0.233s    144.514w    169 calls
Properties                          :    555.544p                         710505 calls
Functional                          :    175.769p                         710505 calls
V_xc                                :    651.303p                         656144 calls
JK: D                               :      0.517u      0.000s      0.045w    169 calls
JK: USO2AO                          :      0.750u      0.017s      0.061w    169 calls
JK: JK                              :   6067.767u    103.450s    463.918w    169 calls
JK: J                               :     56.150u      0.900s      4.907w    169 calls
JK: J1                              :     31.683u      0.683s      2.431w    169 calls
JK: J2                              :     23.417u      0.200s      2.378w    169 calls
JK: K                               :   1917.767u      5.100s    144.497w    169 calls
JK: K1                              :   1584.383u      0.483s    119.011w    169 calls
JK: K2                              :    333.133u      4.617s     25.459w    169 calls
JK: wK                              :   3378.033u      5.733s    254.085w    338 calls
JK: wK1                             :   3041.750u      1.167s    228.458w    676 calls
JK: wK2                             :    333.733u      4.533s     25.572w    338 calls
JK: AO2USO                          :      0.000u      0.000s      0.000w    169 calls
HF: Form F                          :      0.817u      0.000s      0.061w    169 calls
HF: Form D                          :      0.317u      0.000s      0.036w    169 calls
HF: DIIS                            :     15.267u      1.083s      1.226w    168 calls
DIISManager::add_entry              :      3.467u      0.133s      0.244w    155 calls
DIISManager::extrapolate            :      5.883u      0.850s      0.494w    155 calls
bMatrix setup                       :      2.550u      0.533s      0.233w    155 calls
bMatrix pseudoinverse               :      0.150u      0.000s      0.010w    155 calls
New vector                          :      3.183u      0.317s      0.251w    155 calls
HF: Form C                          :     32.733u      0.583s      2.497w    168 calls
Grad: V T Perturb                   :     70.267u      0.450s      5.306w     14 calls
Grad: S                             :      0.533u      0.000s      0.045w     14 calls
Grad: JK                            :   2740.133u     86.933s    274.910w     14 calls
JKGrad: Amn                         :    329.583u     20.467s     40.615w     14 calls
JKGrad: Awmn                        :    363.733u     20.567s     42.653w     14 calls
JKGrad: AB                          :    126.183u      4.133s     15.793w     14 calls
JKGrad: UV                          :     27.733u      3.167s      4.630w     14 calls
JKGrad: ABx                         :     15.717u      0.650s      1.753w     14 calls
JKGrad: Amnx                        :   1851.717u     36.700s    167.459w     14 calls
Grad: XC                            :    669.833u      0.183s     50.300w     14 calls
V_xc gradient                       :    168.125p                          54361 calls

--------------------------------------------------------------------------------------
V: Grid                             :    115.433u      0.967s      9.374w     14 calls
JK: (A|mn)                          :    446.017u      0.033s     33.485w     14 calls
JK: (A|Q)^-1/2                      :    103.367u      1.450s     11.898w     14 calls
JK: (Q|mn)                          :     90.100u      0.000s     13.544w     14 calls
JK: (A|mn)^L                        :    183.383u      0.117s     13.782w     14 calls
JK: (A|Q)^-1                        :    102.100u      1.400s     11.752w     14 calls
JK: (Q|mn)^L                        :     86.517u      0.000s     12.985w     14 calls
JK: (A|mn)^R                        :    213.450u      0.150s     16.033w     14 calls
HF: Form core H                     :      1.467u      0.083s      0.125w     14 calls
HF: Form S/X                        :      2.867u      0.100s      0.221w     14 calls
HF: Guess                           :      9.683u      0.300s      0.752w     14 calls
| SAD Guess                         :      9.483u      0.300s      0.733w      1 calls
HF: Form G                          :   7995.483u    103.750s    608.667w    169 calls
| RV: Form V                        :   1924.933u      0.233s    144.514w    169 calls
| | Properties                      :    338.229p                         656144 calls
| | Functional                      :    162.075p                         656144 calls
| | V_xc                            :    651.303p                         656144 calls
| JK: D                             :      0.517u      0.000s      0.045w    169 calls
| JK: USO2AO                        :      0.750u      0.017s      0.061w    169 calls
| JK: JK                            :   6067.767u    103.450s    463.918w    169 calls
| | JK: J                           :     56.150u      0.900s      4.907w    169 calls
| | | JK: J1                        :     31.683u      0.683s      2.431w    169 calls
| | | JK: J2                        :     23.417u      0.200s      2.378w    169 calls
| | JK: K                           :   1917.767u      5.100s    144.497w    169 calls
| | | JK: K1                        :   1584.383u      0.483s    119.011w    169 calls
| | | JK: K2                        :    333.133u      4.617s     25.459w    169 calls
| | JK: wK                          :   3378.033u      5.733s    254.085w    338 calls
| | | JK: wK1                       :   3041.750u      1.167s    228.458w    676 calls
| | | JK: wK2                       :    333.733u      4.533s     25.572w    338 calls
| JK: AO2USO                        :      0.000u      0.000s      0.000w    169 calls
HF: Form F                          :      0.817u      0.000s      0.061w    169 calls
HF: Form D                          :      0.317u      0.000s      0.036w    169 calls
HF: DIIS                            :     15.267u      1.083s      1.226w    168 calls
| DIISManager::add_entry            :      3.467u      0.133s      0.244w    155 calls
| DIISManager::extrapolate          :      5.883u      0.850s      0.494w    155 calls
| | bMatrix setup                   :      2.550u      0.533s      0.233w    155 calls
| | bMatrix pseudoinverse           :      0.150u      0.000s      0.010w    155 calls
| | New vector                      :      3.183u      0.317s      0.251w    155 calls
HF: Form C                          :     32.733u      0.583s      2.497w    168 calls
Grad: V T Perturb                   :     70.267u      0.450s      5.306w     14 calls
Grad: S                             :      0.533u      0.000s      0.045w     14 calls
Grad: JK                            :   2740.133u     86.933s    274.910w     14 calls
| JKGrad: Amn                       :    329.583u     20.467s     40.615w     14 calls
| JKGrad: Awmn                      :    363.733u     20.567s     42.653w     14 calls
| JKGrad: AB                        :    126.183u      4.133s     15.793w     14 calls
| JKGrad: UV                        :     27.733u      3.167s      4.630w     14 calls
| JKGrad: ABx                       :     15.717u      0.650s      1.753w     14 calls
| JKGrad: Amnx                      :   1851.717u     36.700s    167.459w     14 calls
Grad: XC                            :    669.833u      0.183s     50.300w     14 calls
| Properties                        :    217.314p                          54361 calls
| Functional                        :     13.694p                          54361 calls
| V_xc gradient                     :    168.125p                          54361 calls

**************************************************************************************

Host: cpu-spot-dy-c5n2xlarge-1

Timers On : Mon Jun 21 23:02:42 2021
Timers Off: Mon Jun 21 23:24:56 2021

Wall Time:     1334.57 seconds

                                                       Time (seconds)
Module                                       User      System        Wall        Calls
V: Grid                             :    136.467u      1.167s     11.100w     16 calls
JK: (A|mn)                          :    495.217u      0.050s     37.195w     16 calls
JK: (A|Q)^-1/2                      :    116.250u      1.433s     13.271w     16 calls
JK: (Q|mn)                          :    106.650u      0.000s     16.005w     16 calls
JK: (A|mn)^L                        :    206.983u      0.217s     15.559w     16 calls
JK: (A|Q)^-1                        :    115.750u      1.433s     13.181w     16 calls
JK: (Q|mn)^L                        :    102.433u      0.000s     15.370w     16 calls
JK: (A|mn)^R                        :    241.850u      0.167s     18.180w     16 calls
HF: Form core H                     :      1.800u      0.150s      0.153w     16 calls
HF: Form S/X                        :      3.383u      0.050s      0.261w     16 calls
HF: Guess                           :      9.800u      0.250s      0.756w     16 calls
SAD Guess                           :      9.567u      0.233s      0.735w      1 calls
HF: Form G                          :   9941.650u    127.017s    756.245w    204 calls
RV: Form V                          :   2430.183u      0.433s    182.445w    204 calls
Properties                          :    691.574p                         850842 calls
Functional                          :    217.522p                         850842 calls
V_xc                                :    820.656p                         788961 calls
JK: D                               :      0.667u      0.017s      0.054w    204 calls
JK: USO2AO                          :      1.133u      0.067s      0.073w    204 calls
JK: JK                              :   7507.817u    126.450s    573.514w    204 calls
JK: J                               :     74.533u      1.567s      6.072w    204 calls
JK: J1                              :     38.283u      0.833s      2.990w    204 calls
JK: J2                              :     34.450u      0.717s      2.963w    204 calls
JK: K                               :   2367.467u      6.533s    178.382w    204 calls
JK: K1                              :   1956.283u      0.783s    146.947w    204 calls
JK: K2                              :    410.917u      5.750s     31.400w    204 calls
JK: wK                              :   4195.917u      7.417s    315.652w    408 calls
JK: wK1                             :   3781.550u      1.283s    284.039w    816 calls
JK: wK2                             :    411.133u      6.100s     31.546w    408 calls
JK: AO2USO                          :      0.000u      0.000s      0.000w    204 calls
HF: Form F                          :      0.883u      0.017s      0.074w    204 calls
HF: Form D                          :      0.383u      0.017s      0.045w    204 calls
HF: DIIS                            :     18.983u      1.500s      1.529w    203 calls
DIISManager::add_entry              :      4.067u      0.417s      0.292w    188 calls
DIISManager::extrapolate            :      7.683u      0.917s      0.633w    188 calls
bMatrix setup                       :      3.500u      0.600s      0.298w    188 calls
bMatrix pseudoinverse               :      0.133u      0.000s      0.013w    188 calls
New vector                          :      4.000u      0.317s      0.321w    188 calls
HF: Form C                          :     40.517u      0.567s      3.089w    203 calls
Grad: V T Perturb                   :     80.783u      0.583s      6.102w     16 calls
Grad: S                             :      0.700u      0.000s      0.052w     16 calls
Grad: JK                            :   3144.983u     98.700s    314.596w     16 calls
JKGrad: Amn                         :    376.850u     24.033s     46.363w     16 calls
JKGrad: Awmn                        :    415.983u     23.333s     48.688w     16 calls
JKGrad: AB                          :    143.517u      4.417s     17.779w     16 calls
JKGrad: UV                          :     32.250u      3.550s      5.374w     16 calls
JKGrad: ABx                         :     17.367u      0.600s      1.918w     16 calls
JKGrad: Amnx                        :   2129.600u     41.467s    192.158w     16 calls
Grad: XC                            :    744.650u      0.233s     55.921w     16 calls
V_xc gradient                       :    167.891p                          61881 calls

--------------------------------------------------------------------------------------
V: Grid                             :    136.467u      1.167s     11.100w     16 calls
JK: (A|mn)                          :    495.217u      0.050s     37.195w     16 calls
JK: (A|Q)^-1/2                      :    116.250u      1.433s     13.271w     16 calls
JK: (Q|mn)                          :    106.650u      0.000s     16.005w     16 calls
JK: (A|mn)^L                        :    206.983u      0.217s     15.559w     16 calls
JK: (A|Q)^-1                        :    115.750u      1.433s     13.181w     16 calls
JK: (Q|mn)^L                        :    102.433u      0.000s     15.370w     16 calls
JK: (A|mn)^R                        :    241.850u      0.167s     18.180w     16 calls
HF: Form core H                     :      1.800u      0.150s      0.153w     16 calls
HF: Form S/X                        :      3.383u      0.050s      0.261w     16 calls
HF: Guess                           :      9.800u      0.250s      0.756w     16 calls
| SAD Guess                         :      9.567u      0.233s      0.735w      1 calls
HF: Form G                          :   9941.650u    127.017s    756.245w    204 calls
| RV: Form V                        :   2430.183u      0.433s    182.445w    204 calls
| | Properties                      :    432.172p                         788961 calls
| | Functional                      :    201.162p                         788961 calls
| | V_xc                            :    820.656p                         788961 calls
| JK: D                             :      0.667u      0.017s      0.054w    204 calls
| JK: USO2AO                        :      1.133u      0.067s      0.073w    204 calls
| JK: JK                            :   7507.817u    126.450s    573.514w    204 calls
| | JK: J                           :     74.533u      1.567s      6.072w    204 calls
| | | JK: J1                        :     38.283u      0.833s      2.990w    204 calls
| | | JK: J2                        :     34.450u      0.717s      2.963w    204 calls
| | JK: K                           :   2367.467u      6.533s    178.382w    204 calls
| | | JK: K1                        :   1956.283u      0.783s    146.947w    204 calls
| | | JK: K2                        :    410.917u      5.750s     31.400w    204 calls
| | JK: wK                          :   4195.917u      7.417s    315.652w    408 calls
| | | JK: wK1                       :   3781.550u      1.283s    284.039w    816 calls
| | | JK: wK2                       :    411.133u      6.100s     31.546w    408 calls
| JK: AO2USO                        :      0.000u      0.000s      0.000w    204 calls
HF: Form F                          :      0.883u      0.017s      0.074w    204 calls
HF: Form D                          :      0.383u      0.017s      0.045w    204 calls
HF: DIIS                            :     18.983u      1.500s      1.529w    203 calls
| DIISManager::add_entry            :      4.067u      0.417s      0.292w    188 calls
| DIISManager::extrapolate          :      7.683u      0.917s      0.633w    188 calls
| | bMatrix setup                   :      3.500u      0.600s      0.298w    188 calls
| | bMatrix pseudoinverse           :      0.133u      0.000s      0.013w    188 calls
| | New vector                      :      4.000u      0.317s      0.321w    188 calls
HF: Form C                          :     40.517u      0.567s      3.089w    203 calls
Grad: V T Perturb                   :     80.783u      0.583s      6.102w     16 calls
Grad: S                             :      0.700u      0.000s      0.052w     16 calls
Grad: JK                            :   3144.983u     98.700s    314.596w     16 calls
| JKGrad: Amn                       :    376.850u     24.033s     46.363w     16 calls
| JKGrad: Awmn                      :    415.983u     23.333s     48.688w     16 calls
| JKGrad: AB                        :    143.517u      4.417s     17.779w     16 calls
| JKGrad: UV                        :     32.250u      3.550s      5.374w     16 calls
| JKGrad: ABx                       :     17.367u      0.600s      1.918w     16 calls
| JKGrad: Amnx                      :   2129.600u     41.467s    192.158w     16 calls
Grad: XC                            :    744.650u      0.233s     55.921w     16 calls
| Properties                        :    259.403p                          61881 calls
| Functional                        :     16.360p                          61881 calls
| V_xc gradient                     :    167.891p                          61881 calls

**************************************************************************************

Host: cpu-spot-dy-c5n2xlarge-1

Timers On : Mon Jun 21 23:25:02 2021
Timers Off: Mon Jun 21 23:40:39 2021

Wall Time:      937.40 seconds

                                                       Time (seconds)
Module                                       User      System        Wall        Calls
V: Grid                             :     90.033u      0.767s      7.413w     11 calls
JK: (A|mn)                          :    348.050u      0.067s     26.133w     11 calls
JK: (A|Q)^-1/2                      :     81.283u      0.983s      9.373w     11 calls
JK: (Q|mn)                          :     73.017u      0.000s     10.968w     11 calls
JK: (A|mn)^L                        :    145.100u      0.133s     10.908w     11 calls
JK: (A|Q)^-1                        :     80.800u      0.950s      9.297w     11 calls
JK: (Q|mn)^L                        :     70.167u      0.000s     10.527w     11 calls
JK: (A|mn)^R                        :    169.300u      0.050s     12.710w     11 calls
HF: Form core H                     :      1.200u      0.083s      0.101w     11 calls
HF: Form S/X                        :      2.367u      0.017s      0.180w     11 calls
HF: Guess                           :      9.733u      0.300s      0.754w     11 calls
SAD Guess                           :      9.533u      0.283s      0.736w      1 calls
HF: Form G                          :   7061.917u     89.517s    537.565w    145 calls
RV: Form V                          :   1729.033u      0.367s    129.808w    145 calls
Properties                          :    487.360p                         601888 calls
Functional                          :    153.208p                         601888 calls
V_xc                                :    583.724p                         559442 calls
JK: D                               :      0.450u      0.000s      0.039w    145 calls
JK: USO2AO                          :      0.767u      0.000s      0.052w    145 calls
JK: JK                              :   5330.267u     89.150s    407.552w    145 calls
JK: J                               :     47.850u      0.717s      4.297w    145 calls
JK: J1                              :     27.567u      0.400s      2.132w    145 calls
JK: J2                              :     19.167u      0.250s      2.080w    145 calls
JK: K                               :   1681.383u      4.550s    126.681w    145 calls
JK: K1                              :   1388.450u      0.617s    104.296w    145 calls
JK: K2                              :    292.767u      3.933s     22.361w    145 calls
JK: wK                              :   2983.717u      5.450s    224.465w    290 calls
JK: wK1                             :   2689.017u      1.000s    201.971w    580 calls
JK: wK2                             :    292.617u      4.417s     22.446w    290 calls
JK: AO2USO                          :      0.033u      0.000s      0.000w    145 calls
HF: Form F                          :      0.683u      0.000s      0.053w    145 calls
HF: Form D                          :      0.233u      0.017s      0.032w    145 calls
HF: DIIS                            :     13.567u      1.200s      1.101w    144 calls
DIISManager::add_entry              :      2.917u      0.317s      0.208w    134 calls
DIISManager::extrapolate            :      5.650u      0.683s      0.464w    134 calls
bMatrix setup                       :      2.633u      0.400s      0.219w    134 calls
bMatrix pseudoinverse               :      0.117u      0.000s      0.009w    134 calls
New vector                          :      2.883u      0.283s      0.235w    134 calls
HF: Form C                          :     28.917u      0.433s      2.208w    144 calls
Grad: V T Perturb                   :     55.417u      0.400s      4.191w     11 calls
Grad: S                             :      0.433u      0.000s      0.036w     11 calls
Grad: JK                            :   2163.517u     66.533s    216.238w     11 calls
JKGrad: Amn                         :    260.200u     16.200s     31.917w     11 calls
JKGrad: Awmn                        :    285.900u     15.783s     33.484w     11 calls
JKGrad: AB                          :     98.200u      2.583s     12.185w     11 calls
JKGrad: UV                          :     20.983u      2.067s      3.455w     11 calls
JKGrad: ABx                         :     11.967u      0.350s      1.309w     11 calls
JKGrad: Amnx                        :   1466.200u     28.483s    132.295w     11 calls
Grad: XC                            :    514.933u      0.183s     38.666w     11 calls
V_xc gradient                       :    117.039p                          42446 calls

--------------------------------------------------------------------------------------
V: Grid                             :     90.033u      0.767s      7.413w     11 calls
JK: (A|mn)                          :    348.050u      0.067s     26.133w     11 calls
JK: (A|Q)^-1/2                      :     81.283u      0.983s      9.373w     11 calls
JK: (Q|mn)                          :     73.017u      0.000s     10.968w     11 calls
JK: (A|mn)^L                        :    145.100u      0.133s     10.908w     11 calls
JK: (A|Q)^-1                        :     80.800u      0.950s      9.297w     11 calls
JK: (Q|mn)^L                        :     70.167u      0.000s     10.527w     11 calls
JK: (A|mn)^R                        :    169.300u      0.050s     12.710w     11 calls
HF: Form core H                     :      1.200u      0.083s      0.101w     11 calls
HF: Form S/X                        :      2.367u      0.017s      0.180w     11 calls
HF: Guess                           :      9.733u      0.300s      0.754w     11 calls
| SAD Guess                         :      9.533u      0.283s      0.736w      1 calls
HF: Form G                          :   7061.917u     89.517s    537.565w    145 calls
| RV: Form V                        :   1729.033u      0.367s    129.808w    145 calls
| | Properties                      :    308.866p                         559442 calls
| | Functional                      :    141.994p                         559442 calls
| | V_xc                            :    583.724p                         559442 calls
| JK: D                             :      0.450u      0.000s      0.039w    145 calls
| JK: USO2AO                        :      0.767u      0.000s      0.052w    145 calls
| JK: JK                            :   5330.267u     89.150s    407.552w    145 calls
| | JK: J                           :     47.850u      0.717s      4.297w    145 calls
| | | JK: J1                        :     27.567u      0.400s      2.132w    145 calls
| | | JK: J2                        :     19.167u      0.250s      2.080w    145 calls
| | JK: K                           :   1681.383u      4.550s    126.681w    145 calls
| | | JK: K1                        :   1388.450u      0.617s    104.296w    145 calls
| | | JK: K2                        :    292.767u      3.933s     22.361w    145 calls
| | JK: wK                          :   2983.717u      5.450s    224.465w    290 calls
| | | JK: wK1                       :   2689.017u      1.000s    201.971w    580 calls
| | | JK: wK2                       :    292.617u      4.417s     22.446w    290 calls
| JK: AO2USO                        :      0.033u      0.000s      0.000w    145 calls
HF: Form F                          :      0.683u      0.000s      0.053w    145 calls
HF: Form D                          :      0.233u      0.017s      0.032w    145 calls
HF: DIIS                            :     13.567u      1.200s      1.101w    144 calls
| DIISManager::add_entry            :      2.917u      0.317s      0.208w    134 calls
| DIISManager::extrapolate          :      5.650u      0.683s      0.464w    134 calls
| | bMatrix setup                   :      2.633u      0.400s      0.219w    134 calls
| | bMatrix pseudoinverse           :      0.117u      0.000s      0.009w    134 calls
| | New vector                      :      2.883u      0.283s      0.235w    134 calls
HF: Form C                          :     28.917u      0.433s      2.208w    144 calls
Grad: V T Perturb                   :     55.417u      0.400s      4.191w     11 calls
Grad: S                             :      0.433u      0.000s      0.036w     11 calls
Grad: JK                            :   2163.517u     66.533s    216.238w     11 calls
| JKGrad: Amn                       :    260.200u     16.200s     31.917w     11 calls
| JKGrad: Awmn                      :    285.900u     15.783s     33.484w     11 calls
| JKGrad: AB                        :     98.200u      2.583s     12.185w     11 calls
| JKGrad: UV                        :     20.983u      2.067s      3.455w     11 calls
| JKGrad: ABx                       :     11.967u      0.350s      1.309w     11 calls
| JKGrad: Amnx                      :   1466.200u     28.483s    132.295w     11 calls
Grad: XC                            :    514.933u      0.183s     38.666w     11 calls
| Properties                        :    178.494p                          42446 calls
| Functional                        :     11.214p                          42446 calls
| V_xc gradient                     :    117.039p                          42446 calls

**************************************************************************************

Host: cpu-spot-dy-c5n2xlarge-1

Timers On : Mon Jun 21 23:40:45 2021
Timers Off: Tue Jun 22 00:01:19 2021

Wall Time:     1233.98 seconds

                                                       Time (seconds)
Module                                       User      System        Wall        Calls
V: Grid                             :    123.650u      1.100s     10.068w     15 calls
JK: (A|mn)                          :    471.600u      0.017s     35.406w     15 calls
JK: (A|Q)^-1/2                      :    108.000u      1.283s     12.263w     15 calls
JK: (Q|mn)                          :     99.200u      0.017s     14.911w     15 calls
JK: (A|mn)^L                        :    194.850u      0.117s     14.646w     15 calls
JK: (A|Q)^-1                        :    108.333u      1.450s     12.336w     15 calls
JK: (Q|mn)^L                        :     95.350u      0.000s     14.307w     15 calls
JK: (A|mn)^R                        :    228.317u      0.117s     17.153w     15 calls
HF: Form core H                     :      1.917u      0.100s      0.165w     15 calls
HF: Form S/X                        :      3.167u      0.117s      0.242w     15 calls
HF: Guess                           :      9.800u      0.250s      0.758w     15 calls
SAD Guess                           :      9.583u      0.250s      0.738w      1 calls
HF: Form G                          :   9014.917u    114.650s    685.720w    185 calls
RV: Form V                          :   2203.000u      0.483s    165.409w    185 calls
Properties                          :    641.214p                         770092 calls
Functional                          :    196.222p                         770092 calls
V_xc                                :    739.185p                         712341 calls
JK: D                               :      0.600u      0.050s      0.049w    185 calls
JK: USO2AO                          :      0.800u      0.033s      0.066w    185 calls
JK: JK                              :   6808.717u    114.033s    520.052w    185 calls
JK: J                               :     67.867u      1.383s      5.520w    185 calls
JK: J1                              :     34.683u      0.767s      2.719w    185 calls
JK: J2                              :     31.633u      0.567s      2.694w    185 calls
JK: K                               :   2156.333u      5.683s    162.453w    185 calls
JK: K1                              :   1782.817u      0.550s    133.909w    185 calls
JK: K2                              :    373.250u      5.133s     28.513w    185 calls
JK: wK                              :   3797.650u      6.500s    285.660w    370 calls
JK: wK1                             :   3421.517u      1.267s    256.974w    740 calls
JK: wK2                             :    373.750u      5.167s     28.625w    370 calls
JK: AO2USO                          :      0.000u      0.000s      0.000w    185 calls
HF: Form F                          :      0.967u      0.033s      0.067w    185 calls
HF: Form D                          :      0.450u      0.000s      0.041w    185 calls
HF: DIIS                            :     17.033u      1.483s      1.379w    184 calls
DIISManager::add_entry              :      3.517u      0.467s      0.270w    170 calls
DIISManager::extrapolate            :      6.800u      0.883s      0.560w    170 calls
bMatrix setup                       :      3.033u      0.567s      0.263w    170 calls
bMatrix pseudoinverse               :      0.200u      0.000s      0.011w    170 calls
New vector                          :      3.567u      0.317s      0.284w    170 calls
HF: Form C                          :     36.817u      0.583s      2.818w    184 calls
Grad: V T Perturb                   :     75.500u      0.650s      5.710w     15 calls
Grad: S                             :      0.617u      0.000s      0.049w     15 calls
Grad: JK                            :   2963.567u     93.467s    296.176w     15 calls
JKGrad: Amn                         :    355.967u     22.333s     43.634w     15 calls
JKGrad: Awmn                        :    391.550u     22.133s     45.846w     15 calls
JKGrad: AB                          :    133.983u      4.133s     16.580w     15 calls
JKGrad: UV                          :     30.267u      3.300s      5.037w     15 calls
JKGrad: ABx                         :     16.500u      0.550s      1.831w     15 calls
JKGrad: Amnx                        :   2007.867u     39.767s    181.078w     15 calls
Grad: XC                            :    756.483u      0.267s     56.806w     15 calls
V_xc gradient                       :    192.496p                          57751 calls

--------------------------------------------------------------------------------------
V: Grid                             :    123.650u      1.100s     10.068w     15 calls
JK: (A|mn)                          :    471.600u      0.017s     35.406w     15 calls
JK: (A|Q)^-1/2                      :    108.000u      1.283s     12.263w     15 calls
JK: (Q|mn)                          :     99.200u      0.017s     14.911w     15 calls
JK: (A|mn)^L                        :    194.850u      0.117s     14.646w     15 calls
JK: (A|Q)^-1                        :    108.333u      1.450s     12.336w     15 calls
JK: (Q|mn)^L                        :     95.350u      0.000s     14.307w     15 calls
JK: (A|mn)^R                        :    228.317u      0.117s     17.153w     15 calls
HF: Form core H                     :      1.917u      0.100s      0.165w     15 calls
HF: Form S/X                        :      3.167u      0.117s      0.242w     15 calls
HF: Guess                           :      9.800u      0.250s      0.758w     15 calls
| SAD Guess                         :      9.583u      0.250s      0.738w      1 calls
HF: Form G                          :   9014.917u    114.650s    685.720w    185 calls
| RV: Form V                        :   2203.000u      0.483s    165.409w    185 calls
| | Properties                      :    397.940p                         712341 calls
| | Functional                      :    181.129p                         712341 calls
| | V_xc                            :    739.185p                         712341 calls
| JK: D                             :      0.600u      0.050s      0.049w    185 calls
| JK: USO2AO                        :      0.800u      0.033s      0.066w    185 calls
| JK: JK                            :   6808.717u    114.033s    520.052w    185 calls
| | JK: J                           :     67.867u      1.383s      5.520w    185 calls
| | | JK: J1                        :     34.683u      0.767s      2.719w    185 calls
| | | JK: J2                        :     31.633u      0.567s      2.694w    185 calls
| | JK: K                           :   2156.333u      5.683s    162.453w    185 calls
| | | JK: K1                        :   1782.817u      0.550s    133.909w    185 calls
| | | JK: K2                        :    373.250u      5.133s     28.513w    185 calls
| | JK: wK                          :   3797.650u      6.500s    285.660w    370 calls
| | | JK: wK1                       :   3421.517u      1.267s    256.974w    740 calls
| | | JK: wK2                       :    373.750u      5.167s     28.625w    370 calls
| JK: AO2USO                        :      0.000u      0.000s      0.000w    185 calls
HF: Form F                          :      0.967u      0.033s      0.067w    185 calls
HF: Form D                          :      0.450u      0.000s      0.041w    185 calls
HF: DIIS                            :     17.033u      1.483s      1.379w    184 calls
| DIISManager::add_entry            :      3.517u      0.467s      0.270w    170 calls
| DIISManager::extrapolate          :      6.800u      0.883s      0.560w    170 calls
| | bMatrix setup                   :      3.033u      0.567s      0.263w    170 calls
| | bMatrix pseudoinverse           :      0.200u      0.000s      0.011w    170 calls
| | New vector                      :      3.567u      0.317s      0.284w    170 calls
HF: Form C                          :     36.817u      0.583s      2.818w    184 calls
Grad: V T Perturb                   :     75.500u      0.650s      5.710w     15 calls
Grad: S                             :      0.617u      0.000s      0.049w     15 calls
Grad: JK                            :   2963.567u     93.467s    296.176w     15 calls
| JKGrad: Amn                       :    355.967u     22.333s     43.634w     15 calls
| JKGrad: Awmn                      :    391.550u     22.133s     45.846w     15 calls
| JKGrad: AB                        :    133.983u      4.133s     16.580w     15 calls
| JKGrad: UV                        :     30.267u      3.300s      5.037w     15 calls
| JKGrad: ABx                       :     16.500u      0.550s      1.831w     15 calls
| JKGrad: Amnx                      :   2007.867u     39.767s    181.078w     15 calls
Grad: XC                            :    756.483u      0.267s     56.806w     15 calls
| Properties                        :    243.274p                          57751 calls
| Functional                        :     15.094p                          57751 calls
| V_xc gradient                     :    192.496p                          57751 calls

**************************************************************************************

Host: cpu-spot-dy-c5n2xlarge-1

Timers On : Tue Jun 22 00:01:24 2021
Timers Off: Tue Jun 22 00:14:59 2021

Wall Time:      815.43 seconds

                                                       Time (seconds)
Module                                       User      System        Wall        Calls
V: Grid                             :     83.700u      0.717s      6.852w     10 calls
JK: (A|mn)                          :    318.067u      0.017s     23.899w     10 calls
JK: (A|Q)^-1/2                      :     74.683u      0.817s      8.682w     10 calls
JK: (Q|mn)                          :     66.150u      0.017s      9.943w     10 calls
JK: (A|mn)^L                        :    131.850u      0.133s      9.908w     10 calls
JK: (A|Q)^-1                        :     73.783u      0.817s      8.494w     10 calls
JK: (Q|mn)^L                        :     63.417u      0.000s      9.530w     10 calls
JK: (A|mn)^R                        :    154.000u      0.050s     11.563w     10 calls
HF: Form core H                     :      1.083u      0.050s      0.092w     10 calls
HF: Form S/X                        :      2.100u      0.083s      0.163w     10 calls
HF: Guess                           :      9.733u      0.233s      0.753w     10 calls
SAD Guess                           :      9.567u      0.233s      0.736w      1 calls
HF: Form G                          :   5879.417u     74.900s    447.692w    121 calls
RV: Form V                          :   1441.483u      0.233s    108.226w    121 calls
Properties                          :    421.609p                         504557 calls
Functional                          :    127.959p                         504557 calls
V_xc                                :    484.484p                         466036 calls
JK: D                               :      0.300u      0.000s      0.032w    121 calls
JK: USO2AO                          :      0.800u      0.017s      0.044w    121 calls
JK: JK                              :   4435.800u     74.650s    339.295w    121 calls
JK: J                               :     39.500u      0.650s      3.600w    121 calls
JK: J1                              :     23.000u      0.400s      1.789w    121 calls
JK: J2                              :     15.667u      0.217s      1.739w    121 calls
JK: K                               :   1398.333u      3.583s    105.367w    121 calls
JK: K1                              :   1153.583u      0.433s     86.647w    121 calls
JK: K2                              :    244.700u      3.150s     18.701w    121 calls
JK: wK                              :   2481.800u      4.350s    186.717w    242 calls
JK: wK1                             :   2234.533u      0.833s    167.843w    484 calls
JK: wK2                             :    245.550u      3.500s     18.834w    242 calls
JK: AO2USO                          :      0.017u      0.000s      0.000w    121 calls
HF: Form F                          :      0.617u      0.017s      0.044w    121 calls
HF: Form D                          :      0.383u      0.000s      0.027w    121 calls
HF: DIIS                            :     11.050u      0.750s      0.894w    120 calls
DIISManager::add_entry              :      2.350u      0.217s      0.174w    111 calls
DIISManager::extrapolate            :      4.183u      0.500s      0.363w    111 calls
bMatrix setup                       :      2.000u      0.300s      0.171w    111 calls
bMatrix pseudoinverse               :      0.050u      0.000s      0.007w    111 calls
New vector                          :      2.117u      0.200s      0.184w    111 calls
HF: Form C                          :     24.317u      0.467s      1.846w    120 calls
Grad: V T Perturb                   :     50.333u      0.250s      3.798w     10 calls
Grad: S                             :      0.433u      0.000s      0.032w     10 calls
Grad: JK                            :   1974.650u     62.133s    197.941w     10 calls
JKGrad: Amn                         :    237.450u     14.850s     29.150w     10 calls
JKGrad: Awmn                        :    261.617u     14.750s     30.638w     10 calls
JKGrad: AB                          :     90.750u      2.500s     11.339w     10 calls
JKGrad: UV                          :     20.350u      2.150s      3.382w     10 calls
JKGrad: ABx                         :     10.883u      0.317s      1.191w     10 calls
JKGrad: Amnx                        :   1335.433u     26.600s    120.796w     10 calls
Grad: XC                            :    505.517u      0.200s     37.957w     10 calls
V_xc gradient                       :    128.962p                          38521 calls

--------------------------------------------------------------------------------------
V: Grid                             :     83.700u      0.717s      6.852w     10 calls
JK: (A|mn)                          :    318.067u      0.017s     23.899w     10 calls
JK: (A|Q)^-1/2                      :     74.683u      0.817s      8.682w     10 calls
JK: (Q|mn)                          :     66.150u      0.017s      9.943w     10 calls
JK: (A|mn)^L                        :    131.850u      0.133s      9.908w     10 calls
JK: (A|Q)^-1                        :     73.783u      0.817s      8.494w     10 calls
JK: (Q|mn)^L                        :     63.417u      0.000s      9.530w     10 calls
JK: (A|mn)^R                        :    154.000u      0.050s     11.563w     10 calls
HF: Form core H                     :      1.083u      0.050s      0.092w     10 calls
HF: Form S/X                        :      2.100u      0.083s      0.163w     10 calls
HF: Guess                           :      9.733u      0.233s      0.753w     10 calls
| SAD Guess                         :      9.567u      0.233s      0.736w      1 calls
HF: Form G                          :   5879.417u     74.900s    447.692w    121 calls
| RV: Form V                        :   1441.483u      0.233s    108.226w    121 calls
| | Properties                      :    259.520p                         466036 calls
| | Functional                      :    117.920p                         466036 calls
| | V_xc                            :    484.484p                         466036 calls
| JK: D                             :      0.300u      0.000s      0.032w    121 calls
| JK: USO2AO                        :      0.800u      0.017s      0.044w    121 calls
| JK: JK                            :   4435.800u     74.650s    339.295w    121 calls
| | JK: J                           :     39.500u      0.650s      3.600w    121 calls
| | | JK: J1                        :     23.000u      0.400s      1.789w    121 calls
| | | JK: J2                        :     15.667u      0.217s      1.739w    121 calls
| | JK: K                           :   1398.333u      3.583s    105.367w    121 calls
| | | JK: K1                        :   1153.583u      0.433s     86.647w    121 calls
| | | JK: K2                        :    244.700u      3.150s     18.701w    121 calls
| | JK: wK                          :   2481.800u      4.350s    186.717w    242 calls
| | | JK: wK1                       :   2234.533u      0.833s    167.843w    484 calls
| | | JK: wK2                       :    245.550u      3.500s     18.834w    242 calls
| JK: AO2USO                        :      0.017u      0.000s      0.000w    121 calls
HF: Form F                          :      0.617u      0.017s      0.044w    121 calls
HF: Form D                          :      0.383u      0.000s      0.027w    121 calls
HF: DIIS                            :     11.050u      0.750s      0.894w    120 calls
| DIISManager::add_entry            :      2.350u      0.217s      0.174w    111 calls
| DIISManager::extrapolate          :      4.183u      0.500s      0.363w    111 calls
| | bMatrix setup                   :      2.000u      0.300s      0.171w    111 calls
| | bMatrix pseudoinverse           :      0.050u      0.000s      0.007w    111 calls
| | New vector                      :      2.117u      0.200s      0.184w    111 calls
HF: Form C                          :     24.317u      0.467s      1.846w    120 calls
Grad: V T Perturb                   :     50.333u      0.250s      3.798w     10 calls
Grad: S                             :      0.433u      0.000s      0.032w     10 calls
Grad: JK                            :   1974.650u     62.133s    197.941w     10 calls
| JKGrad: Amn                       :    237.450u     14.850s     29.150w     10 calls
| JKGrad: Awmn                      :    261.617u     14.750s     30.638w     10 calls
| JKGrad: AB                        :     90.750u      2.500s     11.339w     10 calls
| JKGrad: UV                        :     20.350u      2.150s      3.382w     10 calls
| JKGrad: ABx                       :     10.883u      0.317s      1.191w     10 calls
| JKGrad: Amnx                      :   1335.433u     26.600s    120.796w     10 calls
Grad: XC                            :    505.517u      0.200s     37.957w     10 calls
| Properties                        :    162.089p                          38521 calls
| Functional                        :     10.039p                          38521 calls
| V_xc gradient                     :    128.962p                          38521 calls

**************************************************************************************

Host: cpu-spot-dy-c5n2xlarge-1

Timers On : Tue Jun 22 00:15:05 2021
Timers Off: Tue Jun 22 00:27:26 2021

Wall Time:      741.55 seconds

                                                       Time (seconds)
Module                                       User      System        Wall        Calls
V: Grid                             :     73.200u      0.667s      6.004w      9 calls
JK: (A|mn)                          :    279.650u      0.017s     21.005w      9 calls
JK: (A|Q)^-1/2                      :     65.817u      0.833s      7.564w      9 calls
JK: (Q|mn)                          :     59.333u      0.017s      8.908w      9 calls
JK: (A|mn)^L                        :    115.700u      0.067s      8.693w      9 calls
JK: (A|Q)^-1                        :     65.650u      0.767s      7.535w      9 calls
JK: (Q|mn)^L                        :     56.917u      0.017s      8.532w      9 calls
JK: (A|mn)^R                        :    135.133u      0.050s     10.153w      9 calls
HF: Form core H                     :      1.000u      0.067s      0.084w      9 calls
HF: Form S/X                        :      1.917u      0.033s      0.145w      9 calls
HF: Guess                           :      9.867u      0.183s      0.757w      9 calls
SAD Guess                           :      9.683u      0.183s      0.741w      1 calls
HF: Form G                          :   5495.400u     70.800s    418.395w    114 calls
RV: Form V                          :   1328.550u      0.233s     99.752w    114 calls
Properties                          :    377.190p                         477053 calls
Functional                          :    121.674p                         477053 calls
V_xc                                :    448.436p                         442148 calls
JK: D                               :      0.267u      0.033s      0.030w    114 calls
JK: USO2AO                          :      0.500u      0.017s      0.041w    114 calls
JK: JK                              :   4164.767u     70.483s    318.483w    114 calls
JK: J                               :     37.600u      0.667s      3.343w    114 calls
JK: J1                              :     21.283u      0.483s      1.653w    114 calls
JK: J2                              :     15.433u      0.183s      1.624w    114 calls
JK: K                               :   1316.817u      3.283s     99.215w    114 calls
JK: K1                              :   1087.367u      0.450s     81.688w    114 calls
JK: K2                              :    229.250u      2.833s     17.508w    114 calls
JK: wK                              :   2326.600u      3.850s    175.004w    228 calls
JK: wK1                             :   2095.067u      0.617s    157.351w    456 calls
JK: wK2                             :    229.917u      3.217s     17.616w    228 calls
JK: AO2USO                          :      0.000u      0.000s      0.000w    114 calls
HF: Form F                          :      0.550u      0.033s      0.041w    114 calls
HF: Form D                          :      0.267u      0.000s      0.025w    114 calls
HF: DIIS                            :     10.550u      0.817s      0.852w    113 calls
DIISManager::add_entry              :      2.267u      0.150s      0.164w    105 calls
DIISManager::extrapolate            :      4.283u      0.617s      0.352w    105 calls
bMatrix setup                       :      2.033u      0.383s      0.165w    105 calls
bMatrix pseudoinverse               :      0.067u      0.000s      0.007w    105 calls
New vector                          :      2.183u      0.233s      0.178w    105 calls
HF: Form C                          :     22.783u      0.317s      1.742w    113 calls
Grad: V T Perturb                   :     45.133u      0.367s      3.417w      9 calls
Grad: S                             :      0.333u      0.000s      0.029w      9 calls
Grad: JK                            :   1759.167u     56.083s    176.481w      9 calls
JKGrad: Amn                         :    211.117u     13.583s     26.040w      9 calls
JKGrad: Awmn                        :    233.117u     13.067s     27.373w      9 calls
JKGrad: AB                          :     80.967u      2.450s     10.111w      9 calls
JKGrad: UV                          :     18.183u      1.983s      3.025w      9 calls
JKGrad: ABx                         :      9.700u      0.283s      1.069w      9 calls
JKGrad: Amnx                        :   1189.667u     23.850s    107.565w      9 calls
Grad: XC                            :    392.900u      0.133s     29.504w      9 calls
V_xc gradient                       :     81.029p                          34905 calls

--------------------------------------------------------------------------------------
V: Grid                             :     73.200u      0.667s      6.004w      9 calls
JK: (A|mn)                          :    279.650u      0.017s     21.005w      9 calls
JK: (A|Q)^-1/2                      :     65.817u      0.833s      7.564w      9 calls
JK: (Q|mn)                          :     59.333u      0.017s      8.908w      9 calls
JK: (A|mn)^L                        :    115.700u      0.067s      8.693w      9 calls
JK: (A|Q)^-1                        :     65.650u      0.767s      7.535w      9 calls
JK: (Q|mn)^L                        :     56.917u      0.017s      8.532w      9 calls
JK: (A|mn)^R                        :    135.133u      0.050s     10.153w      9 calls
HF: Form core H                     :      1.000u      0.067s      0.084w      9 calls
HF: Form S/X                        :      1.917u      0.033s      0.145w      9 calls
HF: Guess                           :      9.867u      0.183s      0.757w      9 calls
| SAD Guess                         :      9.683u      0.183s      0.741w      1 calls
HF: Form G                          :   5495.400u     70.800s    418.395w    114 calls
| RV: Form V                        :   1328.550u      0.233s     99.752w    114 calls
| | Properties                      :    233.612p                         442148 calls
| | Functional                      :    112.407p                         442148 calls
| | V_xc                            :    448.436p                         442148 calls
| JK: D                             :      0.267u      0.033s      0.030w    114 calls
| JK: USO2AO                        :      0.500u      0.017s      0.041w    114 calls
| JK: JK                            :   4164.767u     70.483s    318.483w    114 calls
| | JK: J                           :     37.600u      0.667s      3.343w    114 calls
| | | JK: J1                        :     21.283u      0.483s      1.653w    114 calls
| | | JK: J2                        :     15.433u      0.183s      1.624w    114 calls
| | JK: K                           :   1316.817u      3.283s     99.215w    114 calls
| | | JK: K1                        :   1087.367u      0.450s     81.688w    114 calls
| | | JK: K2                        :    229.250u      2.833s     17.508w    114 calls
| | JK: wK                          :   2326.600u      3.850s    175.004w    228 calls
| | | JK: wK1                       :   2095.067u      0.617s    157.351w    456 calls
| | | JK: wK2                       :    229.917u      3.217s     17.616w    228 calls
| JK: AO2USO                        :      0.000u      0.000s      0.000w    114 calls
HF: Form F                          :      0.550u      0.033s      0.041w    114 calls
HF: Form D                          :      0.267u      0.000s      0.025w    114 calls
HF: DIIS                            :     10.550u      0.817s      0.852w    113 calls
| DIISManager::add_entry            :      2.267u      0.150s      0.164w    105 calls
| DIISManager::extrapolate          :      4.283u      0.617s      0.352w    105 calls
| | bMatrix setup                   :      2.033u      0.383s      0.165w    105 calls
| | bMatrix pseudoinverse           :      0.067u      0.000s      0.007w    105 calls
| | New vector                      :      2.183u      0.233s      0.178w    105 calls
HF: Form C                          :     22.783u      0.317s      1.742w    113 calls
Grad: V T Perturb                   :     45.133u      0.367s      3.417w      9 calls
Grad: S                             :      0.333u      0.000s      0.029w      9 calls
Grad: JK                            :   1759.167u     56.083s    176.481w      9 calls
| JKGrad: Amn                       :    211.117u     13.583s     26.040w      9 calls
| JKGrad: Awmn                      :    233.117u     13.067s     27.373w      9 calls
| JKGrad: AB                        :     80.967u      2.450s     10.111w      9 calls
| JKGrad: UV                        :     18.183u      1.983s      3.025w      9 calls
| JKGrad: ABx                       :      9.700u      0.283s      1.069w      9 calls
| JKGrad: Amnx                      :   1189.667u     23.850s    107.565w      9 calls
Grad: XC                            :    392.900u      0.133s     29.504w      9 calls
| Properties                        :    143.578p                          34905 calls
| Functional                        :      9.266p                          34905 calls
| V_xc gradient                     :     81.029p                          34905 calls

**************************************************************************************

Host: cpu-spot-dy-c5n2xlarge-1

Timers On : Tue Jun 22 00:27:32 2021
Timers Off: Tue Jun 22 00:54:20 2021

Wall Time:     1607.92 seconds

                                                       Time (seconds)
Module                                       User      System        Wall        Calls
V: Grid                             :    155.633u      1.383s     12.745w     19 calls
JK: (A|mn)                          :    596.633u      0.067s     44.796w     19 calls
JK: (A|Q)^-1/2                      :    138.383u      1.750s     15.903w     19 calls
JK: (Q|mn)                          :    124.583u      0.017s     18.713w     19 calls
JK: (A|mn)^L                        :    245.633u      0.133s     18.460w     19 calls
JK: (A|Q)^-1                        :    137.933u      1.683s     15.828w     19 calls
JK: (Q|mn)^L                        :    119.517u      0.000s     17.933w     19 calls
JK: (A|mn)^R                        :    285.900u      0.183s     21.475w     19 calls
HF: Form core H                     :      2.033u      0.150s      0.172w     19 calls
HF: Form S/X                        :      3.967u      0.067s      0.306w     19 calls
HF: Guess                           :      9.850u      0.267s      0.757w     19 calls
SAD Guess                           :      9.550u      0.250s      0.735w      1 calls
HF: Form G                          :  12100.783u    156.400s    921.244w    253 calls
RV: Form V                          :   2910.450u      0.567s    218.528w    253 calls
Properties                          :    815.991p                         1055581 calls
Functional                          :    267.377p                         1055581 calls
V_xc                                :    978.015p                         981837 calls
JK: D                               :      0.683u      0.000s      0.067w    253 calls
JK: USO2AO                          :      1.317u      0.067s      0.090w    253 calls
JK: JK                              :   9185.833u    155.717s    702.364w    253 calls
JK: J                               :     82.883u      1.217s      7.366w    253 calls
JK: J1                              :     46.683u      0.767s      3.653w    253 calls
JK: J2                              :     33.850u      0.417s      3.567w    253 calls
JK: K                               :   2917.117u      7.633s    219.765w    253 calls
JK: K1                              :   2407.633u      0.883s    180.860w    253 calls
JK: K2                              :    509.200u      6.750s     38.864w    253 calls
JK: wK                              :   5111.717u      8.600s    384.497w    506 calls
JK: wK1                             :   4598.717u      1.517s    345.406w   1012 calls
JK: wK2                             :    509.517u      6.983s     39.008w    506 calls
JK: AO2USO                          :      0.000u      0.000s      0.000w    253 calls
HF: Form F                          :      1.150u      0.050s      0.092w    253 calls
HF: Form D                          :      0.583u      0.000s      0.055w    253 calls
HF: DIIS                            :     23.767u      1.650s      1.912w    252 calls
DIISManager::add_entry              :      5.100u      0.400s      0.358w    234 calls
DIISManager::extrapolate            :      9.817u      1.033s      0.807w    234 calls
bMatrix setup                       :      4.350u      0.683s      0.382w    234 calls
bMatrix pseudoinverse               :      0.300u      0.033s      0.016w    234 calls
New vector                          :      5.167u      0.317s      0.408w    234 calls
HF: Form C                          :     50.867u      0.817s      3.864w    252 calls
Grad: V T Perturb                   :     95.583u      0.633s      7.223w     19 calls
Grad: S                             :      0.767u      0.000s      0.062w     19 calls
Grad: JK                            :   3725.367u    116.600s    373.172w     19 calls
JKGrad: Amn                         :    446.783u     27.933s     54.995w     19 calls
JKGrad: Awmn                        :    493.450u     27.300s     57.786w     19 calls
JKGrad: AB                          :    170.733u      5.117s     21.290w     19 calls
JKGrad: UV                          :     37.950u      4.217s      6.327w     19 calls
JKGrad: ABx                         :     20.850u      0.667s      2.312w     19 calls
JKGrad: Amnx                        :   2520.850u     49.583s    227.713w     19 calls
Grad: XC                            :    901.667u      0.333s     67.722w     19 calls
V_xc gradient                       :    217.201p                          73744 calls

--------------------------------------------------------------------------------------
V: Grid                             :    155.633u      1.383s     12.745w     19 calls
JK: (A|mn)                          :    596.633u      0.067s     44.796w     19 calls
JK: (A|Q)^-1/2                      :    138.383u      1.750s     15.903w     19 calls
JK: (Q|mn)                          :    124.583u      0.017s     18.713w     19 calls
JK: (A|mn)^L                        :    245.633u      0.133s     18.460w     19 calls
[...]
JK: USO2AO                          :      0.100u      0.000s      0.006w     11 calls
JK: JK                              :    682.767u      9.017s     53.415w     11 calls
JK: J                               :      3.433u      0.000s      0.524w     11 calls
JK: J1                              :      1.750u      0.000s      0.264w     11 calls
JK: J2                              :      1.667u      0.000s      0.249w     11 calls
JK: K                               :    221.167u      0.350s     16.875w     11 calls
JK: K1                              :    191.517u      0.100s     14.382w     11 calls
JK: K2                              :     29.617u      0.250s      2.490w     11 calls
JK: wK                              :    405.050u      0.567s     30.454w     22 calls
JK: wK1                             :    371.800u      0.117s     27.921w     44 calls
JK: wK2                             :     33.067u      0.450s      2.528w     22 calls
JK: AO2USO                          :      0.000u      0.000s      0.000w     11 calls
HF: Form F                          :      0.067u      0.000s      0.006w     11 calls
HF: Form D                          :      0.000u      0.000s      0.004w     11 calls
HF: DIIS                            :      1.450u      0.117s      0.117w     10 calls
DIISManager::add_entry              :      0.350u      0.017s      0.024w     10 calls
DIISManager::extrapolate            :      0.550u      0.083s      0.046w     10 calls
bMatrix setup                       :      0.250u      0.033s      0.021w     10 calls
bMatrix pseudoinverse               :      0.017u      0.000s      0.001w     10 calls
New vector                          :      0.283u      0.050s      0.024w     10 calls
HF: Form C                          :      3.417u      0.067s      0.258w     10 calls

--------------------------------------------------------------------------------------
V: Grid                             :      8.300u      0.167s      0.707w      1 calls
JK: (A|mn)                          :     72.083u      0.000s      5.412w      1 calls
JK: (A|Q)^-1/2                      :      8.800u      0.200s      1.044w      1 calls
JK: (Q|mn)                          :     11.983u      0.017s      1.801w      1 calls
JK: (A|mn)^L                        :     28.783u      0.000s      2.161w      1 calls
JK: (A|Q)^-1                        :      8.717u      0.150s      1.025w      1 calls
JK: (Q|mn)^L                        :     11.533u      0.000s      1.730w      1 calls
JK: (A|mn)^R                        :     31.667u      0.033s      2.379w      1 calls
HF: Form core H                     :      0.133u      0.017s      0.011w      1 calls
HF: Form S/X                        :      0.350u      0.017s      0.027w      1 calls
HF: Guess                           :      9.833u      0.250s      0.757w      1 calls
| SAD Guess                         :      9.683u      0.250s      0.745w      1 calls
HF: Form G                          :    839.383u      9.067s     65.179w     11 calls
| RV: Form V                        :    156.367u      0.050s     11.741w     11 calls
| | Properties                      :     29.049p                          42801 calls
| | Functional                      :     10.598p                          42801 calls
| | V_xc                            :     53.897p                          42801 calls
| JK: D                             :      0.050u      0.000s      0.004w     11 calls
| JK: USO2AO                        :      0.100u      0.000s      0.006w     11 calls
| JK: JK                            :    682.767u      9.017s     53.415w     11 calls
| | JK: J                           :      3.433u      0.000s      0.524w     11 calls
| | | JK: J1                        :      1.750u      0.000s      0.264w     11 calls
| | | JK: J2                        :      1.667u      0.000s      0.249w     11 calls
| | JK: K                           :    221.167u      0.350s     16.875w     11 calls
| | | JK: K1                        :    191.517u      0.100s     14.382w     11 calls
| | | JK: K2                        :     29.617u      0.250s      2.490w     11 calls
| | JK: wK                          :    405.050u      0.567s     30.454w     22 calls
| | | JK: wK1                       :    371.800u      0.117s     27.921w     44 calls
| | | JK: wK2                       :     33.067u      0.450s      2.528w     22 calls
| JK: AO2USO                        :      0.000u      0.000s      0.000w     11 calls
HF: Form F                          :      0.067u      0.000s      0.006w     11 calls
HF: Form D                          :      0.000u      0.000s      0.004w     11 calls
HF: DIIS                            :      1.450u      0.117s      0.117w     10 calls
| DIISManager::add_entry            :      0.350u      0.017s      0.024w     10 calls
| DIISManager::extrapolate          :      0.550u      0.083s      0.046w     10 calls
| | bMatrix setup                   :      0.250u      0.033s      0.021w     10 calls
| | bMatrix pseudoinverse           :      0.017u      0.000s      0.001w     10 calls
| | New vector                      :      0.283u      0.050s      0.024w     10 calls
HF: Form C                          :      3.417u      0.067s      0.258w     10 calls

**************************************************************************************

Host: cpu-spot-dy-c5n2xlarge-1

Timers On : Tue Jun 22 07:46:44 2021
Timers Off: Tue Jun 22 07:48:13 2021

Wall Time:       88.33 seconds

                                                       Time (seconds)
Module                                       User      System        Wall        Calls
V: Grid                             :      8.033u      0.117s      0.680w      1 calls
JK: (A|mn)                          :     72.467u      0.000s      5.440w      1 calls
JK: (A|Q)^-1/2                      :      9.067u      0.200s      1.083w      1 calls
JK: (Q|mn)                          :     11.917u      0.017s      1.791w      1 calls
JK: (A|mn)^L                        :     28.867u      0.033s      2.169w      1 calls
JK: (A|Q)^-1                        :      9.033u      0.117s      1.070w      1 calls
JK: (Q|mn)^L                        :     11.517u      0.000s      1.728w      1 calls
JK: (A|mn)^R                        :     31.950u      0.017s      2.399w      1 calls
HF: Form core H                     :      0.133u      0.017s      0.012w      1 calls
HF: Form S/X                        :      0.383u      0.017s      0.030w      1 calls
HF: Guess                           :      9.817u      0.200s      0.751w      1 calls
SAD Guess                           :      9.650u      0.200s      0.739w      1 calls
HF: Form G                          :    837.950u      9.250s     65.055w     11 calls
RV: Form V                          :    155.550u      0.050s     11.684w     11 calls
Properties                          :     28.597p                          42636 calls
Functional                          :     10.570p                          42636 calls
V_xc                                :     53.928p                          42636 calls
JK: D                               :      0.033u      0.000s      0.004w     11 calls
JK: USO2AO                          :      0.083u      0.000s      0.006w     11 calls
JK: JK                              :    682.050u      9.183s     53.348w     11 calls
JK: J                               :      3.433u      0.000s      0.524w     11 calls
JK: J1                              :      1.700u      0.000s      0.263w     11 calls
JK: J2                              :      1.650u      0.000s      0.250w     11 calls
JK: K                               :    221.600u      0.317s     16.875w     11 calls
JK: K1                              :    192.483u      0.033s     14.456w     11 calls
JK: K2                              :     29.050u      0.283s      2.417w     11 calls
JK: wK                              :    403.800u      0.633s     30.367w     22 calls
JK: wK1                             :    370.733u      0.033s     27.837w     44 calls
JK: wK2                             :     32.883u      0.600s      2.524w     22 calls
JK: AO2USO                          :      0.000u      0.000s      0.000w     11 calls
HF: Form F                          :      0.100u      0.000s      0.006w     11 calls
HF: Form D                          :      0.067u      0.000s      0.004w     11 calls
HF: DIIS                            :      1.450u      0.083s      0.116w     10 calls
DIISManager::add_entry              :      0.317u      0.033s      0.024w     10 calls
DIISManager::extrapolate            :      0.583u      0.050s      0.045w     10 calls
bMatrix setup                       :      0.267u      0.050s      0.021w     10 calls
bMatrix pseudoinverse               :      0.000u      0.000s      0.001w     10 calls
New vector                          :      0.317u      0.000s      0.024w     10 calls
HF: Form C                          :      3.367u      0.017s      0.258w     10 calls

--------------------------------------------------------------------------------------
V: Grid                             :      8.033u      0.117s      0.680w      1 calls
JK: (A|mn)                          :     72.467u      0.000s      5.440w      1 calls
JK: (A|Q)^-1/2                      :      9.067u      0.200s      1.083w      1 calls
JK: (Q|mn)                          :     11.917u      0.017s      1.791w      1 calls
JK: (A|mn)^L                        :     28.867u      0.033s      2.169w      1 calls
JK: (A|Q)^-1                        :      9.033u      0.117s      1.070w      1 calls
JK: (Q|mn)^L                        :     11.517u      0.000s      1.728w      1 calls
JK: (A|mn)^R                        :     31.950u      0.017s      2.399w      1 calls
HF: Form core H                     :      0.133u      0.017s      0.012w      1 calls
HF: Form S/X                        :      0.383u      0.017s      0.030w      1 calls
HF: Guess                           :      9.817u      0.200s      0.751w      1 calls
| SAD Guess                         :      9.650u      0.200s      0.739w      1 calls
HF: Form G                          :    837.950u      9.250s     65.055w     11 calls
| RV: Form V                        :    155.550u      0.050s     11.684w     11 calls
| | Properties                      :     28.597p                          42636 calls
| | Functional                      :     10.570p                          42636 calls
| | V_xc                            :     53.928p                          42636 calls
| JK: D                             :      0.033u      0.000s      0.004w     11 calls
| JK: USO2AO                        :      0.083u      0.000s      0.006w     11 calls
| JK: JK                            :    682.050u      9.183s     53.348w     11 calls
| | JK: J                           :      3.433u      0.000s      0.524w     11 calls
| | | JK: J1                        :      1.700u      0.000s      0.263w     11 calls
| | | JK: J2                        :      1.650u      0.000s      0.250w     11 calls
| | JK: K                           :    221.600u      0.317s     16.875w     11 calls
| | | JK: K1                        :    192.483u      0.033s     14.456w     11 calls
| | | JK: K2                        :     29.050u      0.283s      2.417w     11 calls
| | JK: wK                          :    403.800u      0.633s     30.367w     22 calls
| | | JK: wK1                       :    370.733u      0.033s     27.837w     44 calls
| | | JK: wK2                       :     32.883u      0.600s      2.524w     22 calls
| JK: AO2USO                        :      0.000u      0.000s      0.000w     11 calls
HF: Form F                          :      0.100u      0.000s      0.006w     11 calls
HF: Form D                          :      0.067u      0.000s      0.004w     11 calls
HF: DIIS                            :      1.450u      0.083s      0.116w     10 calls
| DIISManager::add_entry            :      0.317u      0.033s      0.024w     10 calls
| DIISManager::extrapolate          :      0.583u      0.050s      0.045w     10 calls
| | bMatrix setup                   :      0.267u      0.050s      0.021w     10 calls
| | bMatrix pseudoinverse           :      0.000u      0.000s      0.001w     10 calls
| | New vector                      :      0.317u      0.000s      0.024w     10 calls
HF: Form C                          :      3.367u      0.017s      0.258w     10 calls

**************************************************************************************

Host: cpu-spot-dy-c5n2xlarge-1

Timers On : Tue Jun 22 07:48:18 2021
Timers Off: Tue Jun 22 07:49:47 2021

Wall Time:       88.95 seconds

                                                       Time (seconds)
Module                                       User      System        Wall        Calls
V: Grid                             :      8.333u      0.150s      0.705w      1 calls
JK: (A|mn)                          :     77.850u      0.017s      5.844w      1 calls
JK: (A|Q)^-1/2                      :      8.933u      0.200s      1.066w      1 calls
JK: (Q|mn)                          :     11.917u      0.017s      1.792w      1 calls
JK: (A|mn)^L                        :     30.550u      0.017s      2.295w      1 calls
JK: (A|Q)^-1                        :      8.917u      0.150s      1.053w      1 calls
JK: (Q|mn)^L                        :     11.500u      0.000s      1.726w      1 calls
JK: (A|mn)^R                        :     33.983u      0.017s      2.551w      1 calls
HF: Form core H                     :      0.150u      0.000s      0.012w      1 calls
HF: Form S/X                        :      0.367u      0.033s      0.029w      1 calls
HF: Guess                           :      9.733u      0.267s      0.750w      1 calls
SAD Guess                           :      9.567u      0.267s      0.737w      1 calls
HF: Form G                          :    837.267u      9.083s     64.976w     11 calls
RV: Form V                          :    155.933u      0.017s     11.708w     11 calls
Properties                          :     29.040p                          42559 calls
Functional                          :     10.531p                          42559 calls
V_xc                                :     53.761p                          42559 calls
JK: D                               :      0.050u      0.000s      0.004w     11 calls
JK: USO2AO                          :      0.067u      0.000s      0.006w     11 calls
JK: JK                              :    681.083u      9.067s     53.245w     11 calls
JK: J                               :      3.500u      0.000s      0.526w     11 calls
JK: J1                              :      1.800u      0.000s      0.265w     11 calls
JK: J2                              :      1.667u      0.000s      0.250w     11 calls
JK: K                               :    220.033u      0.350s     16.751w     11 calls
JK: K1                              :    190.850u      0.050s     14.330w     11 calls
JK: K2                              :     29.167u      0.300s      2.418w     11 calls
JK: wK                              :    404.433u      0.567s     30.406w     22 calls
JK: wK1                             :    371.200u      0.133s     27.872w     44 calls
JK: wK2                             :     33.083u      0.433s      2.529w     22 calls
JK: AO2USO                          :      0.000u      0.000s      0.000w     11 calls
HF: Form F                          :      0.100u      0.000s      0.006w     11 calls
HF: Form D                          :      0.033u      0.000s      0.004w     11 calls
HF: DIIS                            :      1.433u      0.117s      0.117w     10 calls
DIISManager::add_entry              :      0.317u      0.083s      0.024w     10 calls
DIISManager::extrapolate            :      0.567u      0.033s      0.046w     10 calls
bMatrix setup                       :      0.283u      0.017s      0.021w     10 calls
bMatrix pseudoinverse               :      0.017u      0.000s      0.001w     10 calls
New vector                          :      0.267u      0.017s      0.024w     10 calls
HF: Form C                          :      3.467u      0.050s      0.259w     10 calls

--------------------------------------------------------------------------------------
V: Grid                             :      8.333u      0.150s      0.705w      1 calls
JK: (A|mn)                          :     77.850u      0.017s      5.844w      1 calls
JK: (A|Q)^-1/2                      :      8.933u      0.200s      1.066w      1 calls
JK: (Q|mn)                          :     11.917u      0.017s      1.792w      1 calls
JK: (A|mn)^L                        :     30.550u      0.017s      2.295w      1 calls
JK: (A|Q)^-1                        :      8.917u      0.150s      1.053w      1 calls
JK: (Q|mn)^L                        :     11.500u      0.000s      1.726w      1 calls
JK: (A|mn)^R                        :     33.983u      0.017s      2.551w      1 calls
HF: Form core H                     :      0.150u      0.000s      0.012w      1 calls
HF: Form S/X                        :      0.367u      0.033s      0.029w      1 calls
HF: Guess                           :      9.733u      0.267s      0.750w      1 calls
| SAD Guess                         :      9.567u      0.267s      0.737w      1 calls
HF: Form G                          :    837.267u      9.083s     64.976w     11 calls
| RV: Form V                        :    155.933u      0.017s     11.708w     11 calls
| | Properties                      :     29.040p                          42559 calls
| | Functional                      :     10.531p                          42559 calls
| | V_xc                            :     53.761p                          42559 calls
| JK: D                             :      0.050u      0.000s      0.004w     11 calls
| JK: USO2AO                        :      0.067u      0.000s      0.006w     11 calls
| JK: JK                            :    681.083u      9.067s     53.245w     11 calls
| | JK: J                           :      3.500u      0.000s      0.526w     11 calls
| | | JK: J1                        :      1.800u      0.000s      0.265w     11 calls
| | | JK: J2                        :      1.667u      0.000s      0.250w     11 calls
| | JK: K                           :    220.033u      0.350s     16.751w     11 calls
| | | JK: K1                        :    190.850u      0.050s     14.330w     11 calls
| | | JK: K2                        :     29.167u      0.300s      2.418w     11 calls
| | JK: wK                          :    404.433u      0.567s     30.406w     22 calls
| | | JK: wK1                       :    371.200u      0.133s     27.872w     44 calls
| | | JK: wK2                       :     33.083u      0.433s      2.529w     22 calls
| JK: AO2USO                        :      0.000u      0.000s      0.000w     11 calls
HF: Form F                          :      0.100u      0.000s      0.006w     11 calls
HF: Form D                          :      0.033u      0.000s      0.004w     11 calls
HF: DIIS                            :      1.433u      0.117s      0.117w     10 calls
| DIISManager::add_entry            :      0.317u      0.083s      0.024w     10 calls
| DIISManager::extrapolate          :      0.567u      0.033s      0.046w     10 calls
| | bMatrix setup                   :      0.283u      0.017s      0.021w     10 calls
| | bMatrix pseudoinverse           :      0.017u      0.000s      0.001w     10 calls
| | New vector                      :      0.267u      0.017s      0.024w     10 calls
HF: Form C                          :      3.467u      0.050s      0.259w     10 calls

**************************************************************************************
