
    -----------------------------------------------------------------------
          Psi4: An Open-Source Ab Initio Electronic Structure Package
                               Psi4 1.3.2 release

                         Git: Rev {HEAD} ecbda83 


    R. M. Parrish, L. A. Burns, D. G. A. Smith, A. C. Simmonett,
    A. E. DePrince III, E. G. Hohenstein, U. Bozkaya, A. Yu. Sokolov,
    R. Di Remigio, R. M. Richard, J. F. Gonthier, A. M. James,
    H. R. McAlexander, A. Kumar, M. Saitow, X. Wang, B. P. Pritchard,
    P. Verma, H. F. Schaefer III, K. Patkowski, R. A. King, E. F. Valeev,
    F. A. Evangelista, J. M. Turney, T. D. Crawford, and C. D. Sherrill,
    J. Chem. Theory Comput. 13(7) pp 3185--3197 (2017).
    (doi: 10.1021/acs.jctc.7b00174)


                         Additional Contributions by
    P. Kraus, H. Kruse, M. H. Lechner, M. C. Schieber, R. A. Shaw,
    A. Alenaizan, R. Galvelis, Z. L. Glick, S. Lehtola, and J. P. Misiewicz

    -----------------------------------------------------------------------


    Psi4 started on: Monday, 21 June 2021 09:28PM

    Process ID: 27163
    Host:       cpu-spot-dy-c5n2xlarge-1
    PSIDATADIR: /fsx/users/francis/anaconda3/envs/poltype-dev/share/psi4
    Memory:     500.0 MiB
    Threads:    1
    
  ==> Input File <==

--------------------------------------------------------------------------
molecule { 
0 1
 N   -1.783000   -1.701600    0.027600
 C   -3.135300   -1.276000    0.048000
 C   -3.413600    0.113200    0.495300
 F   -4.666000    0.539900    0.109600
 F   -3.283700    0.226000    1.872500
 C   -2.357000    0.984100   -0.102200
 C   -0.969800    0.536700   -0.122600
 C    0.089000    1.424400   -0.206100
 C    1.402700    1.009500   -0.225900
 C    1.658300   -0.344500   -0.159400
 C    0.622200   -1.252900   -0.075500
 C   -0.678600   -0.807300   -0.057800
 S    3.317800   -1.005200   -0.176900
 C    4.465100    0.398100   -0.291900
 O   -4.050600   -2.066400   -0.305200
 O   -2.611600    2.104900   -0.597300
 H    2.259800    1.663600   -0.289900
 H   -0.129700    2.466400   -0.256500
 H   -1.550700   -2.733300    0.077000
 H    0.809700   -2.326100   -0.022300
 H    4.185400    0.985700   -1.213900
 H    4.298800    1.013200    0.629200
 H    5.520800    0.047500   -0.348200
}
set {
  geom_maxiter 400
  g_convergence GAU_LOOSE
  dynamic_level 1
}
memory 16GB
set_num_threads(8)
psi4_io.set_default_path("/scratch/Psi4-ligand")
for _ in range(1):
  try:
    set opt_coordinates both
    optimize('mp2/6-31+g*')
    break
  except OptimizationConvergenceError:
    break
  else:
    try:
      set opt_coordinates cartesian
      optimize('mp2/6-31+g*')
      break
    except OptimizationConvergenceError:
      pass
clean()
--------------------------------------------------------------------------

  Memory set to  14.901 GiB by Python driver.
  Threads set to 8 by Python driver.
gradient() will perform analytic gradient computation.
    SCF Algorithm Type (re)set to DF.

*** tstart() called on cpu-spot-dy-c5n2xlarge-1
*** at Mon Jun 21 21:28:30 2021

   => Loading Basis Set <=

    Name: 6-31+G*
    Role: ORBITAL
    Keyword: BASIS
    atoms 1             entry N          line   138 file /fsx/users/francis/anaconda3/envs/poltype-dev/share/psi4/basis/6-31pgs.gbs 
    atoms 2-3, 6-12, 14 entry C          line   119 file /fsx/users/francis/anaconda3/envs/poltype-dev/share/psi4/basis/6-31pgs.gbs 
    atoms 4-5           entry F          line   176 file /fsx/users/francis/anaconda3/envs/poltype-dev/share/psi4/basis/6-31pgs.gbs 
    atoms 13            entry S          line   344 file /fsx/users/francis/anaconda3/envs/poltype-dev/share/psi4/basis/6-31pgs.gbs 
    atoms 15-16         entry O          line   157 file /fsx/users/francis/anaconda3/envs/poltype-dev/share/psi4/basis/6-31pgs.gbs 
    atoms 17-23         entry H          line    46 file /fsx/users/francis/anaconda3/envs/poltype-dev/share/psi4/basis/6-31pgs.gbs 


         ---------------------------------------------------------
                                   SCF
               by Justin Turney, Rob Parrish, Andy Simmonett
                          and Daniel G. A. Smith
                              RHF Reference
                        8 Threads,  15258 MiB Core
         ---------------------------------------------------------

  ==> Geometry <==

    Molecular point group: c1
    Full point group: C1

    Geometry (in Angstrom), charge = 0, multiplicity = 1:

       Center              X                  Y                   Z               Mass       
    ------------   -----------------  -----------------  -----------------  -----------------
         N           -1.006209674224    -1.577123151937    -0.005891555104    14.003074004430
         C           -2.358509674224    -1.151523151937     0.014508444896    12.000000000000
         C           -2.636809674224     0.237676848063     0.461808444896    12.000000000000
         F           -3.889209674224     0.664376848063     0.076108444896    18.998403162730
         F           -2.506909674224     0.350476848063     1.839008444896    18.998403162730
         C           -1.580209674224     1.108576848063    -0.135691555104    12.000000000000
         C           -0.193009674224     0.661176848063    -0.156091555104    12.000000000000
         C            0.865790325776     1.548876848063    -0.239591555104    12.000000000000
         C            2.179490325776     1.133976848063    -0.259391555104    12.000000000000
         C            2.435090325776    -0.220023151937    -0.192891555104    12.000000000000
         C            1.398990325776    -1.128423151937    -0.108991555104    12.000000000000
         C            0.098190325776    -0.682823151937    -0.091291555104    12.000000000000
         S            4.094590325776    -0.880723151937    -0.210391555104    31.972071174400
         C            5.241890325776     0.522576848063    -0.325391555104    12.000000000000
         O           -3.273809674224    -1.941923151937    -0.338691555104    15.994914619570
         O           -1.834809674224     2.229376848063    -0.630791555104    15.994914619570
         H            3.036590325776     1.788076848063    -0.323391555104     1.007825032230
         H            0.647090325776     2.590876848063    -0.289991555104     1.007825032230
         H           -0.773909674224    -2.608823151937     0.043508444896     1.007825032230
         H            1.586490325776    -2.201623151937    -0.055791555104     1.007825032230
         H            4.962190325776     1.110176848063    -1.247391555104     1.007825032230
         H            5.075590325776     1.137676848063     0.595708444896     1.007825032230
         H            6.297590325776     0.171976848063    -0.381691555104     1.007825032230

  Running in c1 symmetry.

  Rotational constants: A =      0.04104  B =      0.00826  C =      0.00731 [cm^-1]
  Rotational constants: A =   1230.24669  B =    247.61718  C =    218.99875 [MHz]
  Nuclear repulsion = 1191.231109080695205

  Charge       = 0
  Multiplicity = 1
  Electrons    = 124
  Nalpha       = 62
  Nbeta        = 62

  ==> Algorithm <==

  SCF Algorithm Type is DF.
  DIIS enabled.
  MOM disabled.
  Fractional occupation disabled.
  Guess Type is SAD.
  Energy threshold   = 1.00e-10
  Density threshold  = 1.00e-10
  Integral threshold = 0.00e+00

  ==> Primary Basis <==

  Basis Set: 6-31+G*
    Blend: 6-31+G*
    Number of shells: 144
    Number of basis function: 322
    Number of Cartesian functions: 322
    Spherical Harmonics?: false
    Max angular momentum: 2

   => Loading Basis Set <=

    Name: (6-31+G* AUX)
    Role: JKFIT
    Keyword: DF_BASIS_SCF
    atoms 1             entry N          line   252 file /fsx/users/francis/anaconda3/envs/poltype-dev/share/psi4/basis/heavy-aug-cc-pvdz-jkfit.gbs 
    atoms 2-3, 6-12, 14 entry C          line   194 file /fsx/users/francis/anaconda3/envs/poltype-dev/share/psi4/basis/heavy-aug-cc-pvdz-jkfit.gbs 
    atoms 4-5           entry F          line   368 file /fsx/users/francis/anaconda3/envs/poltype-dev/share/psi4/basis/heavy-aug-cc-pvdz-jkfit.gbs 
    atoms 13            entry S          line   730 file /fsx/users/francis/anaconda3/envs/poltype-dev/share/psi4/basis/heavy-aug-cc-pvdz-jkfit.gbs 
    atoms 15-16         entry O          line   310 file /fsx/users/francis/anaconda3/envs/poltype-dev/share/psi4/basis/heavy-aug-cc-pvdz-jkfit.gbs 
    atoms 17-23         entry H          line   116 file /fsx/users/francis/anaconda3/envs/poltype-dev/share/psi4/basis/heavy-aug-cc-pvdz-jkfit.gbs 

  ==> Pre-Iterations <==

   -------------------------------------------------------
    Irrep   Nso     Nmo     Nalpha   Nbeta   Ndocc  Nsocc
   -------------------------------------------------------
     A        322     322       0       0       0       0
   -------------------------------------------------------
    Total     322     322      62      62      62       0
   -------------------------------------------------------

  ==> Integral Setup <==

  DFHelper Memory: AOs need 1.300 GiB; user supplied 11.176 GiB. Using in-core AOs.

  ==> MemDFJK: Density-Fitted J/K Matrices <==

    J tasked:                   Yes
    K tasked:                   Yes
    wK tasked:                   No
    OpenMP threads:               8
    Memory [MiB]:             11444
    Algorithm:                 Core
    Schwarz Cutoff:           1E-12
    Mask sparsity (%):      12.3876
    Fitting Condition:        1E-10

   => Auxiliary Basis Set <=

  Basis Set: (6-31+G* AUX)
    Blend: HEAVY-AUG-CC-PVDZ-JKFIT
    Number of shells: 523
    Number of basis function: 1840
    Number of Cartesian functions: 1840
    Spherical Harmonics?: false
    Max angular momentum: 3

  Minimum eigenvalue in the overlap matrix is 4.5665346343E-07.
  Using Symmetric Orthogonalization.

  SCF Guess: Superposition of Atomic Densities via on-the-fly atomic UHF.

  ==> Iterations <==

                           Total Energy        Delta E     RMS |[F,P]|

   @DF-RHF iter SAD: -1182.53016388488982   -1.18253e+03   0.00000e+00 
   @DF-RHF iter   1: -1182.86403432966517   -3.33870e-01   2.75168e-03 DIIS
   @DF-RHF iter   2: -1183.13674131941821   -2.72707e-01   1.97090e-03 DIIS
   @DF-RHF iter   3: -1183.29065603676031   -1.53915e-01   3.87087e-04 DIIS
   @DF-RHF iter   4: -1183.30016758538341   -9.51155e-03   1.77966e-04 DIIS
   @DF-RHF iter   5: -1183.30241637934387   -2.24879e-03   4.15077e-05 DIIS
   @DF-RHF iter   6: -1183.30268673653291   -2.70357e-04   2.08123e-05 DIIS
   @DF-RHF iter   7: -1183.30275576378153   -6.90272e-05   8.90904e-06 DIIS
   @DF-RHF iter   8: -1183.30276699795263   -1.12342e-05   3.64059e-06 DIIS
   @DF-RHF iter   9: -1183.30276890565983   -1.90771e-06   1.56618e-06 DIIS
   @DF-RHF iter  10: -1183.30276930380728   -3.98147e-07   5.72519e-07 DIIS
   @DF-RHF iter  11: -1183.30276935973529   -5.59280e-08   2.35102e-07 DIIS
   @DF-RHF iter  12: -1183.30276936871041   -8.97512e-09   9.59423e-08 DIIS
   @DF-RHF iter  13: -1183.30276937019289   -1.48248e-09   3.92999e-08 DIIS
   @DF-RHF iter  14: -1183.30276937056055   -3.67663e-10   2.14409e-08 DIIS
   @DF-RHF iter  15: -1183.30276937066628   -1.05729e-10   9.10159e-09 DIIS
   @DF-RHF iter  16: -1183.30276937068811   -2.18279e-11   3.83235e-09 DIIS
   @DF-RHF iter  17: -1183.30276937068925   -1.13687e-12   1.73679e-09 DIIS
   @DF-RHF iter  18: -1183.30276937069107   -1.81899e-12   6.58179e-10 DIIS
   @DF-RHF iter  19: -1183.30276937068766    3.41061e-12   2.97821e-10 DIIS
   @DF-RHF iter  20: -1183.30276937069038   -2.72848e-12   1.54413e-10 DIIS
   @DF-RHF iter  21: -1183.30276937068970    6.82121e-13   7.69482e-11 DIIS
  Energy and wave function converged.


  ==> Post-Iterations <==

    Orbital Energies [Eh]
    ---------------------

    Doubly Occupied:                                                      

       1A    -91.978839     2A    -26.372047     3A    -26.355931  
       4A    -20.604104     5A    -20.602740     6A    -15.661373  
       7A    -11.475450     8A    -11.428257     9A    -11.384273  
      10A    -11.342927    11A    -11.322621    12A    -11.299608  
      13A    -11.288029    14A    -11.274998    15A    -11.274910  
      16A    -11.267489    17A     -8.987634    18A     -6.670651  
      19A     -6.669162    20A     -6.667280    21A     -1.690370  
      22A     -1.632184    23A     -1.417484    24A     -1.407693  
      25A     -1.299168    26A     -1.204391    27A     -1.123115  
      28A     -1.098637    29A     -1.059710    30A     -1.041294  
      31A     -0.935971    32A     -0.907431    33A     -0.883972  
      34A     -0.866637    35A     -0.821830    36A     -0.801278  
      37A     -0.792273    38A     -0.753525    39A     -0.736332  
      40A     -0.707105    41A     -0.693455    42A     -0.684128  
      43A     -0.673523    44A     -0.664147    45A     -0.660072  
      46A     -0.644789    47A     -0.641892    48A     -0.629504  
      49A     -0.617369    50A     -0.611113    51A     -0.600955  
      52A     -0.567769    53A     -0.551183    54A     -0.546154  
      55A     -0.537323    56A     -0.491479    57A     -0.485982  
      58A     -0.465850    59A     -0.462238    60A     -0.422181  
      61A     -0.357906    62A     -0.335088  

    Virtual:                                                              

      63A      0.016397    64A      0.046713    65A      0.052898  
      66A      0.071491    67A      0.075463    68A      0.083714  
      69A      0.086237    70A      0.092180    71A      0.095433  
      72A      0.106014    73A      0.109537    74A      0.113326  
      75A      0.116442    76A      0.124895    77A      0.129124  
      78A      0.130941    79A      0.136736    80A      0.143236  
      81A      0.150149    82A      0.155685    83A      0.165395  
      84A      0.169383    85A      0.170584    86A      0.178820  
      87A      0.181415    88A      0.186695    89A      0.190784  
      90A      0.203178    91A      0.208906    92A      0.214776  
      93A      0.216523    94A      0.223973    95A      0.230650  
      96A      0.232367    97A      0.235490    98A      0.245920  
      99A      0.246303   100A      0.258479   101A      0.260730  
     102A      0.266611   103A      0.273758   104A      0.277465  
     105A      0.290105   106A      0.295369   107A      0.301321  
     108A      0.304769   109A      0.315205   110A      0.318696  
     111A      0.320153   112A      0.325690   113A      0.329242  
     114A      0.337185   115A      0.341319   116A      0.348338  
     117A      0.353625   118A      0.366140   119A      0.371574  
     120A      0.378187   121A      0.383393   122A      0.387045  
     123A      0.397591   124A      0.400020   125A      0.408092  
     126A      0.414410   127A      0.422639   128A      0.423271  
     129A      0.430848   130A      0.440684   131A      0.448280  
     132A      0.461474   133A      0.467335   134A      0.473449  
     135A      0.481702   136A      0.490336   137A      0.496344  
     138A      0.499506   139A      0.513776   140A      0.515196  
     141A      0.526672   142A      0.535569   143A      0.539935  
     144A      0.556586   145A      0.560224   146A      0.582702  
     147A      0.598019   148A      0.616680   149A      0.630040  
     150A      0.643442   151A      0.655859   152A      0.673700  
     153A      0.688307   154A      0.690479   155A      0.709929  
     156A      0.738605   157A      0.800014   158A      0.801281  
     159A      0.814686   160A      0.862006   161A      0.874511  
     162A      0.878080   163A      0.902867   164A      0.915901  
     165A      0.919044   166A      0.929073   167A      0.937721  
     168A      0.948912   169A      0.959224   170A      0.977461  
     171A      0.997786   172A      1.001210   173A      1.006152  
     174A      1.014219   175A      1.026244   176A      1.042429  
     177A      1.053372   178A      1.068528   179A      1.073956  
     180A      1.082510   181A      1.098917   182A      1.108576  
     183A      1.119784   184A      1.139308   185A      1.157099  
     186A      1.172189   187A      1.181307   188A      1.199704  
     189A      1.205938   190A      1.209059   191A      1.241682  
     192A      1.260022   193A      1.269212   194A      1.270209  
     195A      1.296234   196A      1.320457   197A      1.327205  
     198A      1.341423   199A      1.363956   200A      1.383672  
     201A      1.388951   202A      1.403053   203A      1.424262  
     204A      1.430639   205A      1.462314   206A      1.475038  
     207A      1.505686   208A      1.532877   209A      1.544521  
     210A      1.571166   211A      1.577762   212A      1.594089  
     213A      1.602401   214A      1.618724   215A      1.624167  
     216A      1.633684   217A      1.641426   218A      1.664470  
     219A      1.675445   220A      1.694679   221A      1.719078  
     222A      1.723857   223A      1.735024   224A      1.753846  
     225A      1.764267   226A      1.798445   227A      1.812265  
     228A      1.843193   229A      1.877321   230A      1.927850  
     231A      1.939070   232A      1.961173   233A      1.974039  
     234A      1.979871   235A      1.982417   236A      1.986647  
     237A      2.000960   238A      2.015969   239A      2.033975  
     240A      2.044614   241A      2.050435   242A      2.053158  
     243A      2.067909   244A      2.101646   245A      2.112870  
     246A      2.117438   247A      2.133901   248A      2.141179  
     249A      2.157703   250A      2.170063   251A      2.195323  
     252A      2.227450   253A      2.239327   254A      2.260314  
     255A      2.270047   256A      2.276832   257A      2.288483  
     258A      2.313661   259A      2.319910   260A      2.334638  
     261A      2.361459   262A      2.378954   263A      2.396602  
     264A      2.415999   265A      2.432360   266A      2.462121  
     267A      2.489148   268A      2.499136   269A      2.504506  
     270A      2.514139   271A      2.527898   272A      2.541723  
     273A      2.556143   274A      2.592154   275A      2.597804  
     276A      2.617459   277A      2.638253   278A      2.639263  
     279A      2.658461   280A      2.714857   281A      2.753735  
     282A      2.780148   283A      2.819571   284A      2.876363  
     285A      2.905625   286A      2.921117   287A      2.929121  
     288A      2.975180   289A      2.996352   290A      3.026193  
     291A      3.036671   292A      3.069699   293A      3.115248  
     294A      3.161660   295A      3.168955   296A      3.224139  
     297A      3.268765   298A      3.312170   299A      3.363734  
     300A      3.431184   301A      3.492791   302A      3.514257  
     303A      3.576665   304A      3.655121   305A      3.737743  
     306A      3.832608   307A      4.363914   308A      4.569811  
     309A      4.647779   310A      4.673593   311A      4.681518  
     312A      4.694268   313A      4.732042   314A      4.753210  
     315A      4.819715   316A      4.846550   317A      4.943526  
     318A      5.010690   319A      5.131920   320A      5.243670  
     321A      6.611046   322A      7.126681  

    Final Occupation by Irrep:
              A 
    DOCC [    62 ]

  @DF-RHF Final Energy: -1183.30276937068970

   => Energetics <=

    Nuclear Repulsion Energy =           1191.2311090806952052
    One-Electron Energy =               -3994.1621158490042944
    Two-Electron Energy =                1619.6282373976193867
    Total Energy =                      -1183.3027693706897026

Computation Completed


Properties will be evaluated at   0.000000,   0.000000,   0.000000 [a0]

Properties computed using the SCF density matrix

  Nuclear Dipole Moment: [e a0]
     X:    25.6493      Y:     0.8894      Z:    -3.3721

  Electronic Dipole Moment: [e a0]
     X:   -22.6615      Y:    -1.1020      Z:     3.5921

  Dipole Moment: [e a0]
     X:     2.9877      Y:    -0.2126      Z:     0.2200     Total:     3.0034

  Dipole Moment: [D]
     X:     7.5941      Y:    -0.5405      Z:     0.5591     Total:     7.6338


*** tstop() called on cpu-spot-dy-c5n2xlarge-1 at Mon Jun 21 21:28:44 2021
Module time:
	user time   =      90.70 seconds =       1.51 minutes
	system time =       6.08 seconds =       0.10 minutes
	total time  =         14 seconds =       0.23 minutes
Total time:
	user time   =      90.70 seconds =       1.51 minutes
	system time =       6.08 seconds =       0.10 minutes
	total time  =         14 seconds =       0.23 minutes

*** tstart() called on cpu-spot-dy-c5n2xlarge-1
*** at Mon Jun 21 21:28:44 2021


  //>>>>>>>>>>>>>>>>>>>>>>>>>>>>>>>>>>>//
  //               DFMP2               //
  //<<<<<<<<<<<<<<<<<<<<<<<<<<<<<<<<<<<//

   => Loading Basis Set <=

    Name: (6-31+G* AUX)
    Role: RIFIT
    Keyword: DF_BASIS_MP2
    atoms 1             entry N          line   162 file /fsx/users/francis/anaconda3/envs/poltype-dev/share/psi4/basis/heavy-aug-cc-pvdz-ri.gbs 
    atoms 2-3, 6-12, 14 entry C          line   116 file /fsx/users/francis/anaconda3/envs/poltype-dev/share/psi4/basis/heavy-aug-cc-pvdz-ri.gbs 
    atoms 4-5           entry F          line   254 file /fsx/users/francis/anaconda3/envs/poltype-dev/share/psi4/basis/heavy-aug-cc-pvdz-ri.gbs 
    atoms 13            entry S          line   520 file /fsx/users/francis/anaconda3/envs/poltype-dev/share/psi4/basis/heavy-aug-cc-pvdz-ri.gbs 
    atoms 15-16         entry O          line   208 file /fsx/users/francis/anaconda3/envs/poltype-dev/share/psi4/basis/heavy-aug-cc-pvdz-ri.gbs 
    atoms 17-23         entry H          line    44 file /fsx/users/francis/anaconda3/envs/poltype-dev/share/psi4/basis/heavy-aug-cc-pvdz-ri.gbs 

	 --------------------------------------------------------
	                          DF-MP2                         
	      2nd-Order Density-Fitted Moller-Plesset Theory     
	              RMP2 Wavefunction,   8 Threads             
	                                                         
	        Rob Parrish, Justin Turney, Andy Simmonett,      
	           Ed Hohenstein, and C. David Sherrill          
	 --------------------------------------------------------

   => Auxiliary Basis Set <=

  Basis Set: (6-31+G* AUX)
    Blend: HEAVY-AUG-CC-PVDZ-RI
    Number of shells: 400
    Number of basis function: 1270
    Number of Cartesian functions: 1505
    Spherical Harmonics?: true
    Max angular momentum: 3

	 --------------------------------------------------------
	                 NBF =   322, NAUX =  1270
	 --------------------------------------------------------
	   CLASS    FOCC     OCC    AOCC    AVIR     VIR    FVIR
	   PAIRS       0      62      62     260     260       0
	 --------------------------------------------------------

  DFHelper Memory: AOs need 1.300 GiB; user supplied 11.176 GiB. Using in-core AOs.


         ------------------------------------------------------------
                                     CPHF                           
                                  Rob Parrish                       
         ------------------------------------------------------------

  ==> Geometry <==

    Molecular point group: c1
    Full point group: C1

    Geometry (in Angstrom), charge = 0, multiplicity = 1:

       Center              X                  Y                   Z               Mass       
    ------------   -----------------  -----------------  -----------------  -----------------
         N           -1.006209674224    -1.577123151937    -0.005891555104    14.003074004430
         C           -2.358509674224    -1.151523151937     0.014508444896    12.000000000000
         C           -2.636809674224     0.237676848063     0.461808444896    12.000000000000
         F           -3.889209674224     0.664376848063     0.076108444896    18.998403162730
         F           -2.506909674224     0.350476848063     1.839008444896    18.998403162730
         C           -1.580209674224     1.108576848063    -0.135691555104    12.000000000000
         C           -0.193009674224     0.661176848063    -0.156091555104    12.000000000000
         C            0.865790325776     1.548876848063    -0.239591555104    12.000000000000
         C            2.179490325776     1.133976848063    -0.259391555104    12.000000000000
         C            2.435090325776    -0.220023151937    -0.192891555104    12.000000000000
         C            1.398990325776    -1.128423151937    -0.108991555104    12.000000000000
         C            0.098190325776    -0.682823151937    -0.091291555104    12.000000000000
         S            4.094590325776    -0.880723151937    -0.210391555104    31.972071174400
         C            5.241890325776     0.522576848063    -0.325391555104    12.000000000000
         O           -3.273809674224    -1.941923151937    -0.338691555104    15.994914619570
         O           -1.834809674224     2.229376848063    -0.630791555104    15.994914619570
         H            3.036590325776     1.788076848063    -0.323391555104     1.007825032230
         H            0.647090325776     2.590876848063    -0.289991555104     1.007825032230
         H           -0.773909674224    -2.608823151937     0.043508444896     1.007825032230
         H            1.586490325776    -2.201623151937    -0.055791555104     1.007825032230
         H            4.962190325776     1.110176848063    -1.247391555104     1.007825032230
         H            5.075590325776     1.137676848063     0.595708444896     1.007825032230
         H            6.297590325776     0.171976848063    -0.381691555104     1.007825032230

  Nuclear repulsion = 1191.231109080695205
  Reference energy  = -1183.302769370689703

  ==> Basis Set <==

  Basis Set: 6-31+G*
    Blend: 6-31+G*
    Number of shells: 144
    Number of basis function: 322
    Number of Cartesian functions: 322
    Spherical Harmonics?: false
    Max angular momentum: 2

  ==> CGRSolver (by Rob Parrish) <==

   Number of roots    =         1
   Preconditioning    =    JACOBI
   Convergence cutoff =     1E-06
   Maximum iterations =       100

  ==> CPHFRHamiltonian (by Rob Parrish) <== 

  ==> MemDFJK: Density-Fitted J/K Matrices <==

    J tasked:                   Yes
    K tasked:                   Yes
    wK tasked:                   No
    OpenMP threads:               8
    Memory [MiB]:             11444
    Algorithm:                 Core
    Schwarz Cutoff:           1E-12
    Mask sparsity (%):      12.3876
    Fitting Condition:        1E-10

   => Auxiliary Basis Set <=

  Basis Set: (6-31+G* AUX)
    Blend: HEAVY-AUG-CC-PVDZ-JKFIT
    Number of shells: 523
    Number of basis function: 1840
    Number of Cartesian functions: 1840
    Spherical Harmonics?: false
    Max angular momentum: 3

  ==> CPHF Iterations <==

  => Iterations <=

             Iter  Converged  Remaining    Residual
  CGR           1          0          1   1.575E-01
  CGR           2          0          1   6.138E-02
  CGR           3          0          1   2.939E-02
  CGR           4          0          1   1.165E-02
  CGR           5          0          1   5.631E-03
  CGR           6          0          1   2.288E-03
  CGR           7          0          1   8.543E-04
  CGR           8          0          1   2.817E-04
  CGR           9          0          1   1.246E-04
  CGR          10          0          1   6.513E-05
  CGR          11          0          1   3.192E-05
  CGR          12          0          1   1.508E-05
  CGR          13          0          1   6.251E-06
  CGR          14          0          1   2.639E-06
  CGR          15          0          1   1.192E-06
  CGR          16          1          0   4.633E-07

    CGRSolver converged.

  ==> DFCorrGrad: Density-Fitted Correlated Gradients <==

    OpenMP threads:              8
    Integrals threads:           8
    Memory [GiB]:           11.176
    Schwarz Cutoff:          0E+00
    Fitting Condition:       1E-10

   => Auxiliary Basis Set <=

  Basis Set: (6-31+G* AUX)
    Blend: HEAVY-AUG-CC-PVDZ-JKFIT
    Number of shells: 523
    Number of basis function: 1840
    Number of Cartesian functions: 1840
    Spherical Harmonics?: false
    Max angular momentum: 3

	-----------------------------------------------------------
	 ==================> DF-MP2 Energies <==================== 
	-----------------------------------------------------------
	 Reference Energy          =   -1183.3027693706897026 [Eh]
	 Singles Energy            =      -0.0000000000000000 [Eh]
	 Same-Spin Energy          =      -0.6526759885548497 [Eh]
	 Opposite-Spin Energy      =      -1.7181482635028376 [Eh]
	 Correlation Energy        =      -2.3708242520576874 [Eh]
	 Total Energy              =   -1185.6735936227473758 [Eh]
	-----------------------------------------------------------
	 ================> DF-SCS-MP2 Energies <================== 
	-----------------------------------------------------------
	 SCS Same-Spin Scale       =       0.3333333333333333 [-]
	 SCS Opposite-Spin Scale   =       1.2000000000000000 [-]
	 SCS Same-Spin Energy      =      -0.2175586628516165 [Eh]
	 SCS Opposite-Spin Energy  =      -2.0617779162034049 [Eh]
	 SCS Correlation Energy    =      -2.2793365790550215 [Eh]
	 SCS Total Energy          =   -1185.5821059497448005 [Eh]
	-----------------------------------------------------------


  -Total Gradient:
     Atom            X                  Y                   Z
    ------   -----------------  -----------------  -----------------
       1       -0.001406048134     0.002554602739    -0.009346005492
       2        0.013330342255     0.084340922094     0.021743955106
       3        0.008196240643    -0.021449432866     0.001827572822
       4       -0.020416797349     0.011742486743    -0.011190679966
       5        0.004597885429     0.005493361386     0.005553062706
       6       -0.016044290180    -0.063209263072     0.029588634573
       7        0.001040601637     0.000329821363    -0.009730939268
       8       -0.002042617519    -0.015271816989     0.002692854126
       9       -0.003539883306    -0.001122768222     0.000686046375
      10       -0.035038732686     0.007580425138     0.001380344429
      11        0.001837951091     0.023955830672    -0.001413264265
      12        0.026146906393     0.022702265754    -0.008415504319
      13        0.000064881941     0.018918644770     0.000434530402
      14        0.021861638617    -0.022162965742     0.001326528221
      15       -0.027300686769    -0.027916245861    -0.017462936615
      16        0.010210456651     0.019545920994    -0.012906117772
      17        0.005309724213    -0.011471586934    -0.000044583748
      18        0.004816442957    -0.016375124591     0.000567698044
      19        0.017732149847    -0.029264459894     0.006854323495
      20       -0.003060270689    -0.000757366101     0.000489982814
      21       -0.013243823223     0.007603033573    -0.018347987388
      22       -0.010579935204     0.004062183465     0.016436079829
      23        0.017527863399     0.000171531599    -0.000723594113


*** tstop() called on cpu-spot-dy-c5n2xlarge-1 at Mon Jun 21 21:29:53 2021
Module time:
	user time   =     301.31 seconds =       5.02 minutes
	system time =      21.79 seconds =       0.36 minutes
	total time  =         69 seconds =       1.15 minutes
Total time:
	user time   =     392.02 seconds =       6.53 minutes
	system time =      27.87 seconds =       0.46 minutes
	total time  =         83 seconds =       1.38 minutes

			-----------------------------------------
			 OPTKING 2.0: for geometry optimizations 
			  - R.A. King,  Bethel University        
			-----------------------------------------
	At level 1: Red. Int., RFO, no backsteps, dynamic trust

	Internal coordinates to be generated automatically.
	Detected frag 1 with atoms:  1 2 3 4 5 6 7 8 9 10 11 12 13 14 15 16 17 18 19 20
	 21 22 23
	---Fragment 1 Bond Connectivity---
	 1 : 2 12 19
	 2 : 1 3 15
	 3 : 2 4 5 6
	 4 : 3
	 5 : 3
	 6 : 3 7 16
	 7 : 6 8 12
	 8 : 7 9 18
	 9 : 8 10 17
	 10 : 9 11 13
	 11 : 10 12 20
	 12 : 1 7 11
	 13 : 10 14
	 14 : 13 21 22 23
	 15 : 2
	 16 : 6
	 17 : 9
	 18 : 8
	 19 : 1
	 20 : 11
	 21 : 14
	 22 : 14
	 23 : 14

	---Fragment 1 Geometry and Gradient---
	 N          -1.9014607091       -2.9803308233       -0.0111334256
	 C          -4.4569373485       -2.1760633843        0.0274169874
	 C          -4.9828481292        0.4491441492        0.8726914833
	 F          -7.3495411288        1.2554902869        0.1438241167
	 F          -4.7373727055        0.6623052562        3.4752223033
	 C          -2.9861635051        2.0949066319       -0.2564198767
	 C          -0.3647354238        1.2494431633       -0.2949702896
	 C           1.6361065978        2.9269530449       -0.4527624211
	 C           4.1186398088        2.1429056754       -0.4901789984
	 C           4.6016538065       -0.4157834984       -0.3645122111
	 C           2.6437085679       -2.1324107108       -0.2059641891
	 C           0.1855528239       -1.2903487493       -0.1725160367
	 S           7.7376543117       -1.6643255495       -0.3975824183
	 C           9.9057370954        0.9875271223       -0.6149009227
	 O          -6.1866036712       -3.6697029138       -0.6400342802
	 O          -3.4672877766        4.2129116733       -1.1920232814
	 H           5.7383240709        3.3789755341       -0.6111214704
	 H           1.2228234941        4.8960476676       -0.5480046178
	 H          -1.4624773301       -4.9299612669        0.0822190450
	 H           2.9980322164       -4.1604647886       -0.1054307593
	 H           9.3771806981        2.0979301937       -2.3572284104
	 H           9.5914756407        2.1498976621        1.1257258115
	 H          11.9007209660        0.3249891428       -0.7212925035
	            -0.0014060481        0.0025546027       -0.0093460055
	             0.0133303423        0.0843409221        0.0217439551
	             0.0081962406       -0.0214494329        0.0018275728
	            -0.0204167973        0.0117424867       -0.0111906800
	             0.0045978854        0.0054933614        0.0055530627
	            -0.0160442902       -0.0632092631        0.0295886346
	             0.0010406016        0.0003298214       -0.0097309393
	            -0.0020426175       -0.0152718170        0.0026928541
	            -0.0035398833       -0.0011227682        0.0006860464
	            -0.0350387327        0.0075804251        0.0013803444
	             0.0018379511        0.0239558307       -0.0014132643
	             0.0261469064        0.0227022658       -0.0084155043
	             0.0000648819        0.0189186448        0.0004345304
	             0.0218616386       -0.0221629657        0.0013265282
	            -0.0273006868       -0.0279162459       -0.0174629366
	             0.0102104567        0.0195459210       -0.0129061178
	             0.0053097242       -0.0114715869       -0.0000445837
	             0.0048164430       -0.0163751246        0.0005676980
	             0.0177321498       -0.0292644599        0.0068543235
	            -0.0030602707       -0.0007573661        0.0004899828
	            -0.0132438232        0.0076030336       -0.0183479874
	            -0.0105799352        0.0040621835        0.0164360798
	             0.0175278634        0.0001715316       -0.0007235941

	Previous optimization step data not found.  Starting new optimization.

	---Fragment 1 Intrafragment Coordinates---
	 - Coordinate -           - BOHR/RAD -       - ANG/DEG -
	 R(1,2)           =         2.679327	       1.417839
	 R(1,12)          =         2.690299	       1.423645
	 R(1,19)          =         2.000620	       1.058682
	 R(2,3)           =         2.807630	       1.485734
	 R(2,15)          =         2.380797	       1.259864
	 R(3,4)           =         2.604357	       1.378167
	 R(3,5)           =         2.622759	       1.387904
	 R(3,6)           =         2.823150	       1.493947
	 R(6,7)           =         2.754665	       1.457706
	 R(6,16)          =         2.364906	       1.251454
	 R(7,8)           =         2.615780	       1.384211
	 R(7,12)          =         2.601606	       1.376711
	 R(8,9)           =         2.603671	       1.377803
	 R(8,18)          =         2.014251	       1.065896
	 R(9,10)          =         2.606911	       1.379518
	 R(9,17)          =         2.041047	       1.080076
	 R(10,11)         =         2.608735	       1.380483
	 R(10,13)         =         3.375567	       1.786273
	 R(11,12)         =         2.598599	       1.375119
	 R(11,20)         =         2.061227	       1.090754
	 R(13,14)         =         3.432220	       1.816253
	 R(14,21)         =         2.132621	       1.128534
	 R(14,22)         =         2.116518	       1.120013
	 R(14,23)         =         2.104813	       1.113819
	 B(1,2,3)         =         2.052918	     117.623515
	 B(1,2,15)        =         2.095054	     120.037744
	 B(1,12,7)        =         2.039789	     116.871276
	 B(1,12,11)       =         2.130628	     122.076016
	 B(2,1,12)        =         2.155793	     123.517836
	 B(2,1,19)        =         2.095705	     120.075069
	 B(2,3,4)         =         1.955691	     112.052847
	 B(2,3,5)         =         1.936068	     110.928509
	 B(2,3,6)         =         1.867309	     106.988946
	 B(3,2,15)        =         2.135214	     122.338741
	 B(3,6,7)         =         2.094075	     119.981663
	 B(3,6,16)        =         2.137000	     122.441084
	 B(4,3,5)         =         1.915158	     109.730474
	 B(4,3,6)         =         1.928678	     110.505125
	 B(5,3,6)         =         1.858018	     106.456608
	 B(6,7,8)         =         2.131674	     122.135941
	 B(6,7,12)        =         2.094692	     120.017031
	 B(7,6,16)        =         2.052110	     117.577253
	 B(7,8,9)         =         2.137761	     122.484684
	 B(7,8,18)        =         2.063301	     118.218465
	 B(7,12,11)       =         2.112768	     121.052708
	 B(8,7,12)        =         2.056819	     117.847028
	 B(8,9,10)        =         2.061822	     118.133677
	 B(8,9,17)        =         2.183546	     125.107996
	 B(9,8,18)        =         2.082123	     119.296851
	 B(9,10,11)       =         2.105665	     120.645691
	 B(9,10,13)       =         2.134943	     122.323209
	 B(10,9,17)       =         2.037817	     116.758327
	 B(10,11,12)      =         2.091536	     119.836211
	 B(10,11,20)      =         2.119273	     121.425424
	 B(10,13,14)      =         1.877267	     107.559448
	 B(11,10,13)      =         2.042578	     117.031100
	 B(12,1,19)       =         2.031687	     116.407095
	 B(12,11,20)      =         2.072375	     118.738365
	 B(13,14,21)      =         1.872830	     107.305240
	 B(13,14,22)      =         1.852985	     106.168217
	 B(13,14,23)      =         1.937693	     111.021609
	 B(21,14,22)      =         1.927453	     110.434905
	 B(21,14,23)      =         1.936396	     110.947320
	 B(22,14,23)      =         1.933895	     110.804027
	 D(1,2,3,4)       =         2.829663	     162.127761
	 D(1,2,3,5)       =        -1.306461	     -74.854679
	 D(1,2,3,6)       =         0.713241	      40.865671
	 D(1,12,7,6)      =        -0.000042	      -0.002425
	 D(1,12,7,8)      =         3.141552	     179.997664
	 D(1,12,11,10)    =        -3.141546	    -179.997300
	 D(1,12,11,20)    =         0.000044	       0.002507
	 D(2,1,12,7)      =         0.000103	       0.005888
	 D(2,1,12,11)     =        -3.141523	    -179.996022
	 D(2,3,6,7)       =        -0.733311	     -42.015635
	 D(2,3,6,16)      =         2.408309	     137.985917
	 D(3,2,1,12)      =        -0.401210	     -22.987660
	 D(3,2,1,19)      =         2.740551	     157.022004
	 D(3,6,7,8)       =        -2.733168	    -156.598979
	 D(3,6,7,12)      =         0.408427	      23.401115
	 D(4,3,2,15)      =        -0.312044	     -17.878805
	 D(4,3,6,7)       =        -2.866736	    -164.251870
	 D(4,3,6,16)      =         0.274884	      15.749682
	 D(5,3,2,15)      =         1.835017	     105.138755
	 D(5,3,6,7)       =         1.337802	      76.650417
	 D(5,3,6,16)      =        -1.803763	    -103.348032
	 D(6,3,2,15)      =        -2.428467	    -139.140895
	 D(6,7,8,9)       =         3.141593	     180.000000
	 D(6,7,8,18)      =         0.000075	       0.004302
	 D(6,7,12,11)     =         3.141593	     180.000000
	 D(7,8,9,10)      =         0.000015	       0.000844
	 D(7,8,9,17)      =        -3.141560	    -179.998127
	 D(7,12,1,19)     =         3.141532	     179.996551
	 D(7,12,11,10)    =         0.000000	       0.000000
	 D(7,12,11,20)    =         3.141593	     180.000000
	 D(8,7,6,16)      =         0.408399	      23.399544
	 D(8,7,12,11)     =        -0.000000	      -0.000000
	 D(8,9,10,11)     =        -0.000000	      -0.000000
	 D(8,9,10,13)     =         3.141570	     179.998674
	 D(9,8,7,12)      =        -0.000000	      -0.000000
	 D(9,10,11,12)    =        -0.000000	      -0.000000
	 D(9,10,11,20)    =         3.141593	     180.000000
	 D(9,10,13,14)    =        -0.000068	      -0.003907
	 D(10,9,8,18)     =         3.141527	     179.996241
	 D(10,13,14,21)   =        -0.983237	     -56.335346
	 D(10,13,14,22)   =         1.078082	      61.769541
	 D(10,13,14,23)   =        -3.101930	    -177.727492
	 D(11,10,9,17)    =         3.141566	     179.998492
	 D(11,10,13,14)   =         3.141512	     179.995359
	 D(11,12,1,19)    =        -0.000094	      -0.005359
	 D(12,1,2,15)     =         2.740494	     157.018748
	 D(12,7,6,16)     =        -2.733192	    -156.600362
	 D(12,7,8,18)     =        -3.141519	    -179.995789
	 D(12,11,10,13)   =         3.141593	     180.000000
	 D(13,10,9,17)    =        -0.000040	      -0.002268
	 D(13,10,11,20)   =         0.000000	       0.000000
	 D(15,2,1,19)     =        -0.400930	     -22.971587
	 D(17,9,8,18)     =        -0.000048	      -0.002730

	Current energy   :     -1185.6735936227

	Generating empirical Hessian (Schlegel '84) for each fragment.
	Taking RFO optimization step.
	Going to follow RFO solution 1.
	Using RFO vector 1.
	Norm of target step-size    0.40814
	Projected energy change by RFO approximation:        -0.0336197178

	Back-transformation to cartesian coordinates...
	Successfully converged to displaced geometry.

	--- Internal Coordinate Step in ANG or DEG, aJ/ANG or AJ/DEG ---
	 ---------------------------------------------------------------------------
	   Coordinate                Previous        Force       Change         New 
	   ----------                --------       ------       ------       ------
	    1 R(1,2)          =      1.417839    -0.275980    -0.039538     1.378301
	    2 R(1,12)         =      1.423645    -0.071833    -0.009592     1.414053
	    3 R(1,19)         =      1.058682    -0.269647    -0.039989     1.018693
	    4 R(2,3)          =      1.485734     0.209414     0.032142     1.517876
	    5 R(2,15)         =      1.259864    -0.348033    -0.026515     1.233349
	    6 R(3,4)          =      1.378167    -0.208614    -0.024790     1.353377
	    7 R(3,5)          =      1.387904    -0.052621    -0.006463     1.381441
	    8 R(3,6)          =      1.493947     0.173963     0.029002     1.522949
	    9 R(6,7)          =      1.457706     0.038313     0.008299     1.466005
	   10 R(6,16)         =      1.251454    -0.169174    -0.012445     1.239009
	   11 R(7,8)          =      1.384211     0.102784     0.012537     1.396748
	   12 R(7,12)         =      1.376711     0.252232     0.032485     1.409195
	   13 R(8,9)          =      1.377803     0.093785     0.010856     1.388659
	   14 R(8,18)         =      1.065896     0.140249     0.021263     1.087159
	   15 R(9,10)         =      1.379518     0.252447     0.029781     1.409299
	   16 R(9,17)         =      1.080076     0.022500     0.003560     1.083635
	   17 R(10,11)        =      1.380483     0.141927     0.016922     1.397405
	   18 R(10,13)        =      1.786273    -0.093524    -0.018866     1.767407
	   19 R(11,12)        =      1.375119     0.121908     0.014614     1.389733
	   20 R(11,20)        =      1.090754    -0.002002    -0.000327     1.090427
	   21 R(13,14)        =      1.816253    -0.015959    -0.003476     1.812777
	   22 R(14,21)        =      1.128534    -0.183157    -0.033302     1.095233
	   23 R(14,22)        =      1.120013    -0.142685    -0.025334     1.094679
	   24 R(14,23)        =      1.113819    -0.136729    -0.023857     1.089962
	   25 B(1,2,3)        =    117.623515    -0.001047    -3.457265   114.166250
	   26 B(1,2,15)       =    120.037744     0.000915     2.599984   122.637728
	   27 B(1,12,7)       =    116.871276     0.000842     2.329608   119.200884
	   28 B(1,12,11)      =    122.076016    -0.000668    -1.947642   120.128374
	   29 B(2,1,12)       =    123.517836     0.000718     1.398752   124.916588
	   30 B(2,1,19)       =    120.075069    -0.001168    -3.658150   116.416919
	   31 B(2,3,4)        =    112.052847    -0.000718    -2.268411   109.784436
	   32 B(2,3,5)        =    110.928509    -0.000730    -2.698010   108.230499
	   33 B(2,3,6)        =    106.988946     0.001694     5.197747   112.186692
	   34 B(3,2,15)       =    122.338741     0.000133     0.836561   123.175301
	   35 B(3,6,7)        =    119.981663    -0.001864    -4.923590   115.058074
	   36 B(3,6,16)       =    122.441084    -0.000429    -1.006024   121.435060
	   37 B(4,3,5)        =    109.730474     0.000004    -1.483378   108.247095
	   38 B(4,3,6)        =    110.505125    -0.000265     0.700823   111.205948
	   39 B(5,3,6)        =    106.456608     0.000086     0.570941   107.027549
	   40 B(6,7,8)        =    122.135941    -0.000238    -1.011451   121.124490
	   41 B(6,7,12)       =    120.017031    -0.000379    -0.461202   119.555830
	   42 B(7,6,16)       =    117.577253     0.002293     5.925817   123.503069
	   43 B(7,8,9)        =    122.484684    -0.000671    -1.862189   120.622495
	   44 B(7,8,18)       =    118.218465     0.000231     0.554983   118.773448
	   45 B(7,12,11)      =    121.052708    -0.000174    -0.386089   120.666619
	   46 B(8,7,12)       =    117.847028     0.000617     1.470990   119.318018
	   47 B(8,9,10)       =    118.133677     0.000502     1.384996   119.518673
	   48 B(8,9,17)       =    125.107996    -0.001208    -4.202508   120.905488
	   49 B(9,8,18)       =    119.296851     0.000440     1.307196   120.604047
	   50 B(9,10,11)      =    120.645691    -0.000078    -0.178875   120.466817
	   51 B(9,10,13)      =    122.323209     0.000668     1.705231   124.028440
	   52 B(10,9,17)      =    116.758327     0.000707     2.817504   119.575831
	   53 B(10,11,12)     =    119.836211    -0.000196    -0.430211   119.406000
	   54 B(10,11,20)     =    121.425424    -0.000150    -0.685607   120.739817
	   55 B(10,13,14)     =    107.559448    -0.002283    -5.859477   101.699971
	   56 B(11,10,13)     =    117.031100    -0.000590    -1.526652   115.504447
	   57 B(12,1,19)      =    116.407095     0.000450     2.250428   118.657523
	   58 B(12,11,20)     =    118.738365     0.000346     1.115730   119.854095
	   59 B(13,14,21)     =    107.305240     0.001027     3.895512   111.200752
	   60 B(13,14,22)     =    106.168217     0.001267     4.962045   111.130263
	   61 B(13,14,23)     =    111.021609    -0.001211    -4.663222   106.358387
	   62 B(21,14,22)     =    110.434905    -0.000355    -1.269728   109.165177
	   63 B(21,14,23)     =    110.947320    -0.000329    -1.592435   109.354886
	   64 B(22,14,23)     =    110.804027    -0.000304    -1.224778   109.579249
	   65 D(1,2,3,4)      =    162.127761     0.000152     3.360123   165.487884
	   66 D(1,2,3,5)      =    -74.854679    -0.000088    -1.699500   -76.554179
	   67 D(1,2,3,6)      =     40.865671     0.000071     0.438361    41.304032
	   68 D(1,12,7,6)     =     -0.002425    -0.000036    -0.130049    -0.132474
	   69 D(1,12,7,8)     =    179.997664    -0.000030     0.333612   180.331276
	   70 D(1,12,11,10)   =   -179.997300     0.000022    -0.422080  -180.419379
	   71 D(1,12,11,20)   =      0.002507     0.000018    -0.314868    -0.312362
	   72 D(2,1,12,7)     =      0.005888     0.000003    -0.618836    -0.612948
	   73 D(2,1,12,11)    =   -179.996022    -0.000013     0.116742  -179.879280
	   74 D(2,3,6,7)      =    -42.015635    -0.000006    -0.391497   -42.407131
	   75 D(2,3,6,16)     =    137.985917    -0.000021     0.292120   138.278037
	   76 D(3,2,1,12)     =    -22.987660     0.000098     1.994055   -20.993604
	   77 D(3,2,1,19)     =    157.022004     0.000083     3.092680   160.114685
	   78 D(3,6,7,8)      =   -156.598979    -0.000077    -1.403924  -158.002902
	   79 D(3,6,7,12)     =     23.401115    -0.000071    -0.931670    22.469445
	   80 D(4,3,2,15)     =    -17.878805     0.000124     1.748610   -16.130195
	   81 D(4,3,6,7)      =   -164.251870    -0.000015    -1.544974  -165.796844
	   82 D(4,3,6,16)     =     15.749682    -0.000029    -0.861357    14.888325
	   83 D(5,3,2,15)     =    105.138755    -0.000116    -3.311013   101.827742
	   84 D(5,3,6,7)      =     76.650417     0.000006    -0.486823    76.163594
	   85 D(5,3,6,16)     =   -103.348032    -0.000009     0.196794  -103.151238
	   86 D(6,3,2,15)     =   -139.140895     0.000042    -1.173151  -140.314046
	   87 D(6,7,8,9)      =    180.000000     0.000018     0.632658   180.632658
	   88 D(6,7,8,18)     =      0.004302     0.000012     0.591358     0.595660
	   89 D(6,7,12,11)    =    180.000000    -0.000020    -0.870197   179.129803
	   90 D(7,8,9,10)     =      0.000844    -0.000001     0.155763     0.156607
	   91 D(7,8,9,17)     =   -179.998127     0.000000     0.186708  -179.811419
	   92 D(7,12,1,19)    =    179.996551     0.000017    -1.740624   178.255927
	   93 D(7,12,11,10)   =      0.000000     0.000006     0.325178     0.325178
	   94 D(7,12,11,20)   =    180.000000     0.000002     0.432195   180.432195
	   95 D(8,7,6,16)     =     23.399544    -0.000063    -2.103537    21.296008
	   96 D(8,7,12,11)    =      0.000000    -0.000014    -0.406447    -0.406447
	   97 D(8,9,10,11)    =      0.000000    -0.000008    -0.239339    -0.239339
	   98 D(8,9,10,13)    =    179.998674     0.000002    -0.031020   179.967654
	   99 D(9,8,7,12)     =      0.000000     0.000012     0.161416     0.161416
	  100 D(9,10,11,12)   =      0.000000     0.000006    -0.001336    -0.001336
	  101 D(9,10,11,20)   =    180.000000     0.000009    -0.109325   179.890675
	  102 D(9,10,13,14)   =     -0.003907    -0.000007    -0.274133    -0.278040
	  103 D(10,9,8,18)    =    179.996241     0.000005     0.198044   180.194286
	  104 D(10,13,14,21)  =    -56.335346    -0.000099    -2.473042   -58.808388
	  105 D(10,13,14,22)  =     61.769541     0.000071     1.253145    63.022685
	  106 D(10,13,14,23)  =   -177.727492     0.000010    -0.049527  -177.777019
	  107 D(11,10,9,17)   =    179.998492    -0.000009    -0.269375   179.729117
	  108 D(11,10,13,14)  =    179.995359     0.000002    -0.075724   179.919635
	  109 D(11,12,1,19)   =     -0.005359     0.000002    -1.005045    -1.010405
	  110 D(12,1,2,15)    =    157.018748     0.000126     3.595929   160.614677
	  111 D(12,7,6,16)    =   -156.600362    -0.000057    -1.631283  -158.231645
	  112 D(12,7,8,18)    =   -179.995789     0.000006     0.120207  -179.875582
	  113 D(12,11,10,13)  =    180.000000    -0.000003    -0.191405   179.808595
	  114 D(13,10,9,17)   =     -0.002268     0.000000    -0.061622    -0.063890
	  115 D(13,10,11,20)  =      0.000000     0.000000    -0.299394    -0.299394
	  116 D(15,2,1,19)    =    -22.971587     0.000111     4.694554   -18.277034
	  117 D(17,9,8,18)    =     -0.002730     0.000007     0.228989     0.226259
	 ---------------------------------------------------------------------------
	Successfully symmetrized geometry.

  ==> Convergence Check <==

  Measures of convergence in internal coordinates in au.
  Criteria marked as inactive (o), active & met (*), and active & unmet ( ).
  --------------------------------------------------------------------------------------------- ~
   Step     Total Energy     Delta E     MAX Force     RMS Force      MAX Disp      RMS Disp    ~
  --------------------------------------------------------------------------------------------- ~
    Convergence Criteria             o    2.50e-03 *    1.70e-03 *    1.00e-02 *    6.70e-03 *  ~
  --------------------------------------------------------------------------------------------- ~
      1   -1185.67359362   -1.19e+03 o    4.22e-02      1.19e-02      1.03e-01      3.79e-02    ~
  ---------------------------------------------------------------------------------------------

	Writing optimization data to binary file.
	Structure for next step:
	Cartesian Geometry (in Angstrom)
	    N    -1.0939556831  -1.4580866972   0.0338598983
	    C    -2.3983839429  -1.0129161312   0.0353979017
	    C    -2.5561660606   0.4473488379   0.4183848325
	    F    -3.7970109446   0.8757834830   0.0891798433
	    F    -2.4113263237   0.5529696095   1.7881460566
	    C    -1.4844284313   1.3264068379  -0.2124950783
	    C    -0.1296493997   0.7667413249  -0.1897022212
	    C     0.9935284630   1.5900704684  -0.2969724397
	    C     2.2717868891   1.0475425209  -0.2873102442
	    C     2.4330816305  -0.3476827518  -0.1713174722
	    C     1.3183010022  -1.1831126408  -0.0614920647
	    C     0.0450342936  -0.6262327114  -0.0674710717
	    S     4.0007637998  -1.1634785141  -0.1472849284
	    C     5.1445875827   0.2333290673  -0.3108532713
	    O    -3.3530717363  -1.7499645710  -0.2224395692
	    O    -1.7581915173   2.4356439211  -0.6918606264
	    H     3.1464358106   1.6822651221  -0.3671985463
	    H     0.8485817862   2.6636029225  -0.3887996083
	    H    -0.9589633424  -2.4659565817   0.0947781538
	    H     1.4378803975  -2.2633696617   0.0266963872
	    H     4.9567749736   0.7931358476  -1.2332836732
	    H     5.0635043706   0.9119957188   0.5442246011
	    H     6.1470638055  -0.1931679268  -0.3448926190
			--------------------------
			 OPTKING Finished Execution 
			--------------------------

    Structure for next step:
    Molecular point group: c1
    Full point group: C1

    Geometry (in Angstrom), charge = 0, multiplicity = 1:

    N           -1.099495843321    -1.493187891958     0.028100313581
    C           -2.403924108341    -1.048017324239     0.029638316944
    C           -2.561706226665     0.412247650577     0.412625249336
    F           -3.802551115514     0.840682297378     0.083420258786
    F           -2.416866489184     0.517868422657     1.782386478774
    C           -1.489968593118     1.291305654044    -0.218254664028
    C           -0.135189556210     0.731640138809    -0.195461806844
    C            0.987988310905     1.554969285553    -0.302732025720
    C            2.266246742045     1.012441335950    -0.293069830156
    C            2.427541484088    -0.382783942250    -0.177077057680
    C            1.312760851402    -1.218213834464    -0.067251649797
    C            0.039494137830    -0.661333902877    -0.073230656812
    S            3.995223659506    -1.198579707734    -0.153044513810
    C            5.139047446911     0.198227879204    -0.316612857408
    O           -3.358611905469    -1.785065766940    -0.228199154936
    O           -1.763731680195     2.400542741588    -0.697620213996
    H            3.140895667009     1.647163939634    -0.372958132592
    H            0.843041633532     2.628501743884    -0.394559194665
    H           -0.964503502142    -2.501057780448     0.089018569345
    H            1.432340247223    -2.298470859653     0.020936802447
    H            4.951234837074     0.758034661685    -1.239043262950
    H            5.057964234505     0.876894533351     0.538465018358
    H            6.141523673663    -0.228269116631    -0.350652205244

gradient() will perform analytic gradient computation.
    SCF Algorithm Type (re)set to DF.

*** tstart() called on cpu-spot-dy-c5n2xlarge-1
*** at Mon Jun 21 21:29:53 2021

   => Loading Basis Set <=

    Name: 6-31+G*
    Role: ORBITAL
    Keyword: BASIS
    atoms 1             entry N          line   138 file /fsx/users/francis/anaconda3/envs/poltype-dev/share/psi4/basis/6-31pgs.gbs 
    atoms 2-3, 6-12, 14 entry C          line   119 file /fsx/users/francis/anaconda3/envs/poltype-dev/share/psi4/basis/6-31pgs.gbs 
    atoms 4-5           entry F          line   176 file /fsx/users/francis/anaconda3/envs/poltype-dev/share/psi4/basis/6-31pgs.gbs 
    atoms 13            entry S          line   344 file /fsx/users/francis/anaconda3/envs/poltype-dev/share/psi4/basis/6-31pgs.gbs 
    atoms 15-16         entry O          line   157 file /fsx/users/francis/anaconda3/envs/poltype-dev/share/psi4/basis/6-31pgs.gbs 
    atoms 17-23         entry H          line    46 file /fsx/users/francis/anaconda3/envs/poltype-dev/share/psi4/basis/6-31pgs.gbs 


         ---------------------------------------------------------
                                   SCF
               by Justin Turney, Rob Parrish, Andy Simmonett
                          and Daniel G. A. Smith
                              RHF Reference
                        8 Threads,  15258 MiB Core
         ---------------------------------------------------------

  ==> Geometry <==

    Molecular point group: c1
    Full point group: C1

    Geometry (in Angstrom), charge = 0, multiplicity = 1:

       Center              X                  Y                   Z               Mass       
    ------------   -----------------  -----------------  -----------------  -----------------
         N           -1.099495843321    -1.493187891958     0.028100313581    14.003074004430
         C           -2.403924108341    -1.048017324239     0.029638316944    12.000000000000
         C           -2.561706226665     0.412247650577     0.412625249336    12.000000000000
         F           -3.802551115514     0.840682297378     0.083420258786    18.998403162730
         F           -2.416866489184     0.517868422657     1.782386478774    18.998403162730
         C           -1.489968593118     1.291305654044    -0.218254664028    12.000000000000
         C           -0.135189556210     0.731640138809    -0.195461806844    12.000000000000
         C            0.987988310905     1.554969285553    -0.302732025720    12.000000000000
         C            2.266246742045     1.012441335950    -0.293069830156    12.000000000000
         C            2.427541484088    -0.382783942250    -0.177077057680    12.000000000000
         C            1.312760851402    -1.218213834464    -0.067251649797    12.000000000000
         C            0.039494137830    -0.661333902877    -0.073230656812    12.000000000000
         S            3.995223659506    -1.198579707734    -0.153044513810    31.972071174400
         C            5.139047446911     0.198227879204    -0.316612857408    12.000000000000
         O           -3.358611905469    -1.785065766940    -0.228199154936    15.994914619570
         O           -1.763731680195     2.400542741588    -0.697620213996    15.994914619570
         H            3.140895667009     1.647163939634    -0.372958132592     1.007825032230
         H            0.843041633532     2.628501743884    -0.394559194665     1.007825032230
         H           -0.964503502142    -2.501057780448     0.089018569345     1.007825032230
         H            1.432340247223    -2.298470859653     0.020936802447     1.007825032230
         H            4.951234837074     0.758034661685    -1.239043262950     1.007825032230
         H            5.057964234505     0.876894533351     0.538465018358     1.007825032230
         H            6.141523673663    -0.228269116631    -0.350652205244     1.007825032230

  Running in c1 symmetry.

  Rotational constants: A =      0.03967  B =      0.00845  C =      0.00739 [cm^-1]
  Rotational constants: A =   1189.21362  B =    253.41874  C =    221.43195 [MHz]
  Nuclear repulsion = 1192.904984657134719

  Charge       = 0
  Multiplicity = 1
  Electrons    = 124
  Nalpha       = 62
  Nbeta        = 62

  ==> Algorithm <==

  SCF Algorithm Type is DF.
  DIIS enabled.
  MOM disabled.
  Fractional occupation disabled.
  Guess Type is READ.
  Energy threshold   = 1.00e-10
  Density threshold  = 1.00e-10
  Integral threshold = 0.00e+00

  ==> Primary Basis <==

  Basis Set: 6-31+G*
    Blend: 6-31+G*
    Number of shells: 144
    Number of basis function: 322
    Number of Cartesian functions: 322
    Spherical Harmonics?: false
    Max angular momentum: 2

   => Loading Basis Set <=

    Name: (6-31+G* AUX)
    Role: JKFIT
    Keyword: DF_BASIS_SCF
    atoms 1             entry N          line   252 file /fsx/users/francis/anaconda3/envs/poltype-dev/share/psi4/basis/heavy-aug-cc-pvdz-jkfit.gbs 
    atoms 2-3, 6-12, 14 entry C          line   194 file /fsx/users/francis/anaconda3/envs/poltype-dev/share/psi4/basis/heavy-aug-cc-pvdz-jkfit.gbs 
    atoms 4-5           entry F          line   368 file /fsx/users/francis/anaconda3/envs/poltype-dev/share/psi4/basis/heavy-aug-cc-pvdz-jkfit.gbs 
    atoms 13            entry S          line   730 file /fsx/users/francis/anaconda3/envs/poltype-dev/share/psi4/basis/heavy-aug-cc-pvdz-jkfit.gbs 
    atoms 15-16         entry O          line   310 file /fsx/users/francis/anaconda3/envs/poltype-dev/share/psi4/basis/heavy-aug-cc-pvdz-jkfit.gbs 
    atoms 17-23         entry H          line   116 file /fsx/users/francis/anaconda3/envs/poltype-dev/share/psi4/basis/heavy-aug-cc-pvdz-jkfit.gbs 

   => Loading Basis Set <=

    Name: 6-31+G*
    Role: ORBITAL
    Keyword: BASIS
    atoms 1             entry N          line   138 file /fsx/users/francis/anaconda3/envs/poltype-dev/share/psi4/basis/6-31pgs.gbs 
    atoms 2-3, 6-12, 14 entry C          line   119 file /fsx/users/francis/anaconda3/envs/poltype-dev/share/psi4/basis/6-31pgs.gbs 
    atoms 4-5           entry F          line   176 file /fsx/users/francis/anaconda3/envs/poltype-dev/share/psi4/basis/6-31pgs.gbs 
    atoms 13            entry S          line   344 file /fsx/users/francis/anaconda3/envs/poltype-dev/share/psi4/basis/6-31pgs.gbs 
    atoms 15-16         entry O          line   157 file /fsx/users/francis/anaconda3/envs/poltype-dev/share/psi4/basis/6-31pgs.gbs 
    atoms 17-23         entry H          line    46 file /fsx/users/francis/anaconda3/envs/poltype-dev/share/psi4/basis/6-31pgs.gbs 

  Reading orbitals from file 180, no projection.

  ==> Pre-Iterations <==

   -------------------------------------------------------
    Irrep   Nso     Nmo     Nalpha   Nbeta   Ndocc  Nsocc
   -------------------------------------------------------
     A        322     322       0       0       0       0
   -------------------------------------------------------
    Total     322     322      62      62      62       0
   -------------------------------------------------------

  ==> Integral Setup <==

  DFHelper Memory: AOs need 1.302 GiB; user supplied 11.176 GiB. Using in-core AOs.

  ==> MemDFJK: Density-Fitted J/K Matrices <==

    J tasked:                   Yes
    K tasked:                   Yes
    wK tasked:                   No
    OpenMP threads:               8
    Memory [MiB]:             11444
    Algorithm:                 Core
    Schwarz Cutoff:           1E-12
    Mask sparsity (%):      12.2140
    Fitting Condition:        1E-10

   => Auxiliary Basis Set <=

  Basis Set: (6-31+G* AUX)
    Blend: HEAVY-AUG-CC-PVDZ-JKFIT
    Number of shells: 523
    Number of basis function: 1840
    Number of Cartesian functions: 1840
    Spherical Harmonics?: false
    Max angular momentum: 3

  Minimum eigenvalue in the overlap matrix is 5.3000475929E-07.
  Using Symmetric Orthogonalization.

  SCF Guess: Orbitals guess was supplied from a previous computation.

  ==> Iterations <==

                           Total Energy        Delta E     RMS |[F,P]|

   @DF-RHF iter   0: -1183.84397999227417   -1.18384e+03   4.53378e-03 
   @DF-RHF iter   1: -1183.31942687796277    5.24553e-01   4.90087e-04 DIIS
   @DF-RHF iter   2: -1183.33275688873323   -1.33300e-02   3.06567e-04 DIIS
   @DF-RHF iter   3: -1183.33703050994609   -4.27362e-03   8.06289e-05 DIIS
   @DF-RHF iter   4: -1183.33738558775781   -3.55078e-04   2.50472e-05 DIIS
   @DF-RHF iter   5: -1183.33744225381088   -5.66661e-05   9.08012e-06 DIIS
   @DF-RHF iter   6: -1183.33745214965529   -9.89584e-06   4.37460e-06 DIIS
   @DF-RHF iter   7: -1183.33745594921925   -3.79956e-06   1.96406e-06 DIIS
   @DF-RHF iter   8: -1183.33745678770265   -8.38483e-07   9.22816e-07 DIIS
   @DF-RHF iter   9: -1183.33745699624887   -2.08546e-07   3.64295e-07 DIIS
   @DF-RHF iter  10: -1183.33745702812962   -3.18807e-08   1.61121e-07 DIIS
   @DF-RHF iter  11: -1183.33745703362160   -5.49198e-09   6.68741e-08 DIIS
   @DF-RHF iter  12: -1183.33745703453656   -9.14952e-10   2.73003e-08 DIIS
   @DF-RHF iter  13: -1183.33745703469185   -1.55296e-10   1.18238e-08 DIIS
   @DF-RHF iter  14: -1183.33745703472209   -3.02407e-11   5.68462e-09 DIIS
   @DF-RHF iter  15: -1183.33745703473096   -8.86757e-12   2.95630e-09 DIIS
   @DF-RHF iter  16: -1183.33745703473687   -5.91172e-12   1.36246e-09 DIIS
   @DF-RHF iter  17: -1183.33745703473346    3.41061e-12   7.21050e-10 DIIS
   @DF-RHF iter  18: -1183.33745703473778   -4.32010e-12   3.20382e-10 DIIS
   @DF-RHF iter  19: -1183.33745703473619    1.59162e-12   1.17067e-10 DIIS
   @DF-RHF iter  20: -1183.33745703473232    3.86535e-12   6.57472e-11 DIIS
  Energy and wave function converged.


  ==> Post-Iterations <==

    Orbital Energies [Eh]
    ---------------------

    Doubly Occupied:                                                      

       1A    -91.985205     2A    -26.361831     3A    -26.348881  
       4A    -20.603959     5A    -20.595060     6A    -15.657433  
       7A    -11.463789     8A    -11.416983     9A    -11.384621  
      10A    -11.352485    11A    -11.328485    12A    -11.295894  
      13A    -11.288846    14A    -11.281436    15A    -11.280418  
      16A    -11.274203    17A     -8.993982    18A     -6.677007  
      19A     -6.675381    20A     -6.673531    21A     -1.691090  
      22A     -1.629407    23A     -1.428650    24A     -1.412460  
      25A     -1.309304    26A     -1.199668    27A     -1.121707  
      28A     -1.087336    29A     -1.059086    30A     -1.036427  
      31A     -0.939262    32A     -0.905166    33A     -0.883707  
      34A     -0.871461    35A     -0.819341    36A     -0.798951  
      37A     -0.789758    38A     -0.753763    39A     -0.738743  
      40A     -0.701630    41A     -0.694231    42A     -0.685435  
      43A     -0.673046    44A     -0.660585    45A     -0.655095  
      46A     -0.647518    47A     -0.645292    48A     -0.631328  
      49A     -0.621628    50A     -0.608170    51A     -0.595716  
      52A     -0.571165    53A     -0.552245    54A     -0.546005  
      55A     -0.538725    56A     -0.488575    57A     -0.486234  
      58A     -0.481283    59A     -0.458368    60A     -0.426752  
      61A     -0.357489    62A     -0.335511  

    Virtual:                                                              

      63A      0.021084    64A      0.046317    65A      0.052071  
      66A      0.070287    67A      0.074919    68A      0.082999  
      69A      0.085153    70A      0.090468    71A      0.094073  
      72A      0.107656    73A      0.109617    74A      0.113365  
      75A      0.116788    76A      0.125048    77A      0.130124  
      78A      0.131360    79A      0.138095    80A      0.143761  
      81A      0.148980    82A      0.156556    83A      0.165195  
      84A      0.169056    85A      0.171720    86A      0.179401  
      87A      0.181754    88A      0.186999    89A      0.192722  
      90A      0.199688    91A      0.209798    92A      0.216221  
      93A      0.222689    94A      0.227314    95A      0.230746  
      96A      0.236659    97A      0.240782    98A      0.245172  
      99A      0.249953   100A      0.258671   101A      0.260517  
     102A      0.264369   103A      0.275863   104A      0.277129  
     105A      0.290262   106A      0.295379   107A      0.302435  
     108A      0.307191   109A      0.315819   110A      0.317622  
     111A      0.323117   112A      0.326964   113A      0.331926  
     114A      0.334950   115A      0.338798   116A      0.346487  
     117A      0.351167   118A      0.367955   119A      0.369672  
     120A      0.379757   121A      0.389255   122A      0.395268  
     123A      0.397879   124A      0.405982   125A      0.408926  
     126A      0.418215   127A      0.423574   128A      0.425139  
     129A      0.429412   130A      0.435844   131A      0.443259  
     132A      0.455232   133A      0.466646   134A      0.469131  
     135A      0.486380   136A      0.488540   137A      0.492889  
     138A      0.498720   139A      0.510991   140A      0.521155  
     141A      0.530880   142A      0.533157   143A      0.539749  
     144A      0.552948   145A      0.565841   146A      0.586849  
     147A      0.596081   148A      0.611932   149A      0.623775  
     150A      0.642286   151A      0.657634   152A      0.678410  
     153A      0.685096   154A      0.697119   155A      0.712011  
     156A      0.748999   157A      0.788445   158A      0.799062  
     159A      0.818342   160A      0.847011   161A      0.862905  
     162A      0.877533   163A      0.898814   164A      0.906895  
     165A      0.918265   166A      0.924532   167A      0.938067  
     168A      0.948446   169A      0.952507   170A      0.979448  
     171A      0.994132   172A      1.005163   173A      1.007710  
     174A      1.012751   175A      1.022557   176A      1.036699  
     177A      1.053952   178A      1.064098   179A      1.084562  
     180A      1.101153   181A      1.103943   182A      1.110085  
     183A      1.121722   184A      1.144701   185A      1.147987  
     186A      1.173204   187A      1.181249   188A      1.204367  
     189A      1.209004   190A      1.213772   191A      1.254792  
     192A      1.262433   193A      1.269983   194A      1.293751  
     195A      1.313769   196A      1.329549   197A      1.332817  
     198A      1.350155   199A      1.360062   200A      1.387512  
     201A      1.397652   202A      1.418846   203A      1.428405  
     204A      1.433979   205A      1.464494   206A      1.471405  
     207A      1.502180   208A      1.534818   209A      1.554348  
     210A      1.570271   211A      1.582988   212A      1.593114  
     213A      1.596448   214A      1.613387   215A      1.615328  
     216A      1.632144   217A      1.642032   218A      1.662686  
     219A      1.675112   220A      1.694085   221A      1.718716  
     222A      1.723726   223A      1.737749   224A      1.749116  
     225A      1.756419   226A      1.782598   227A      1.805213  
     228A      1.829477   229A      1.878182   230A      1.936420  
     231A      1.941164   232A      1.959615   233A      1.968904  
     234A      1.974868   235A      1.983703   236A      1.989900  
     237A      1.992804   238A      2.012737   239A      2.033004  
     240A      2.041221   241A      2.046305   242A      2.051310  
     243A      2.067662   244A      2.096413   245A      2.111358  
     246A      2.112443   247A      2.132733   248A      2.145256  
     249A      2.156834   250A      2.174003   251A      2.194574  
     252A      2.219556   253A      2.232902   254A      2.251877  
     255A      2.275720   256A      2.276424   257A      2.301072  
     258A      2.321474   259A      2.340408   260A      2.350151  
     261A      2.370926   262A      2.377839   263A      2.395959  
     264A      2.413852   265A      2.424927   266A      2.451924  
     267A      2.475198   268A      2.493631   269A      2.504532  
     270A      2.522037   271A      2.536192   272A      2.558616  
     273A      2.572043   274A      2.595649   275A      2.606240  
     276A      2.619248   277A      2.639969   278A      2.648620  
     279A      2.674618   280A      2.729661   281A      2.752623  
     282A      2.791384   283A      2.810480   284A      2.889019  
     285A      2.899139   286A      2.929491   287A      2.938733  
     288A      2.976383   289A      2.997158   290A      3.028640  
     291A      3.057898   292A      3.067699   293A      3.120650  
     294A      3.154164   295A      3.178128   296A      3.206321  
     297A      3.249548   298A      3.323044   299A      3.363519  
     300A      3.450944   301A      3.504732   302A      3.539957  
     303A      3.586089   304A      3.663449   305A      3.751839  
     306A      3.779664   307A      4.361434   308A      4.611191  
     309A      4.665263   310A      4.670373   311A      4.678432  
     312A      4.690464   313A      4.720375   314A      4.757914  
     315A      4.817474   316A      4.839930   317A      4.960415  
     318A      5.052337   319A      5.127531   320A      5.227864  
     321A      6.578338   322A      7.150929  

    Final Occupation by Irrep:
              A 
    DOCC [    62 ]

  @DF-RHF Final Energy: -1183.33745703473232

   => Energetics <=

    Nuclear Repulsion Energy =           1192.9049846571347189
    One-Electron Energy =               -3997.5313941130257263
    Two-Electron Energy =                1621.2889524211586831
    Total Energy =                      -1183.3374570347323242

Computation Completed


Properties will be evaluated at   0.000000,   0.000000,   0.000000 [a0]

Properties computed using the SCF density matrix

  Nuclear Dipole Moment: [e a0]
     X:    25.2653      Y:    -0.4783      Z:    -3.3706

  Electronic Dipole Moment: [e a0]
     X:   -22.1181      Y:     0.0623      Z:     3.4513

  Dipole Moment: [e a0]
     X:     3.1472      Y:    -0.4160      Z:     0.0807     Total:     3.1756

  Dipole Moment: [D]
     X:     7.9995      Y:    -1.0574      Z:     0.2051     Total:     8.0716


*** tstop() called on cpu-spot-dy-c5n2xlarge-1 at Mon Jun 21 21:30:06 2021
Module time:
	user time   =      84.01 seconds =       1.40 minutes
	system time =       5.97 seconds =       0.10 minutes
	total time  =         13 seconds =       0.22 minutes
Total time:
	user time   =     477.43 seconds =       7.96 minutes
	system time =      34.03 seconds =       0.57 minutes
	total time  =         96 seconds =       1.60 minutes

*** tstart() called on cpu-spot-dy-c5n2xlarge-1
*** at Mon Jun 21 21:30:06 2021


  //>>>>>>>>>>>>>>>>>>>>>>>>>>>>>>>>>>>//
  //               DFMP2               //
  //<<<<<<<<<<<<<<<<<<<<<<<<<<<<<<<<<<<//

   => Loading Basis Set <=

    Name: (6-31+G* AUX)
    Role: RIFIT
    Keyword: DF_BASIS_MP2
    atoms 1             entry N          line   162 file /fsx/users/francis/anaconda3/envs/poltype-dev/share/psi4/basis/heavy-aug-cc-pvdz-ri.gbs 
    atoms 2-3, 6-12, 14 entry C          line   116 file /fsx/users/francis/anaconda3/envs/poltype-dev/share/psi4/basis/heavy-aug-cc-pvdz-ri.gbs 
    atoms 4-5           entry F          line   254 file /fsx/users/francis/anaconda3/envs/poltype-dev/share/psi4/basis/heavy-aug-cc-pvdz-ri.gbs 
    atoms 13            entry S          line   520 file /fsx/users/francis/anaconda3/envs/poltype-dev/share/psi4/basis/heavy-aug-cc-pvdz-ri.gbs 
    atoms 15-16         entry O          line   208 file /fsx/users/francis/anaconda3/envs/poltype-dev/share/psi4/basis/heavy-aug-cc-pvdz-ri.gbs 
    atoms 17-23         entry H          line    44 file /fsx/users/francis/anaconda3/envs/poltype-dev/share/psi4/basis/heavy-aug-cc-pvdz-ri.gbs 

	 --------------------------------------------------------
	                          DF-MP2                         
	      2nd-Order Density-Fitted Moller-Plesset Theory     
	              RMP2 Wavefunction,   8 Threads             
	                                                         
	        Rob Parrish, Justin Turney, Andy Simmonett,      
	           Ed Hohenstein, and C. David Sherrill          
	 --------------------------------------------------------

   => Auxiliary Basis Set <=

  Basis Set: (6-31+G* AUX)
    Blend: HEAVY-AUG-CC-PVDZ-RI
    Number of shells: 400
    Number of basis function: 1270
    Number of Cartesian functions: 1505
    Spherical Harmonics?: true
    Max angular momentum: 3

	 --------------------------------------------------------
	                 NBF =   322, NAUX =  1270
	 --------------------------------------------------------
	   CLASS    FOCC     OCC    AOCC    AVIR     VIR    FVIR
	   PAIRS       0      62      62     260     260       0
	 --------------------------------------------------------

  DFHelper Memory: AOs need 1.302 GiB; user supplied 11.176 GiB. Using in-core AOs.


         ------------------------------------------------------------
                                     CPHF                           
                                  Rob Parrish                       
         ------------------------------------------------------------

  ==> Geometry <==

    Molecular point group: c1
    Full point group: C1

    Geometry (in Angstrom), charge = 0, multiplicity = 1:

       Center              X                  Y                   Z               Mass       
    ------------   -----------------  -----------------  -----------------  -----------------
         N           -1.099495843321    -1.493187891958     0.028100313581    14.003074004430
         C           -2.403924108341    -1.048017324239     0.029638316944    12.000000000000
         C           -2.561706226665     0.412247650577     0.412625249336    12.000000000000
         F           -3.802551115514     0.840682297378     0.083420258786    18.998403162730
         F           -2.416866489184     0.517868422657     1.782386478774    18.998403162730
         C           -1.489968593118     1.291305654044    -0.218254664028    12.000000000000
         C           -0.135189556210     0.731640138809    -0.195461806844    12.000000000000
         C            0.987988310905     1.554969285553    -0.302732025720    12.000000000000
         C            2.266246742045     1.012441335950    -0.293069830156    12.000000000000
         C            2.427541484088    -0.382783942250    -0.177077057680    12.000000000000
         C            1.312760851402    -1.218213834464    -0.067251649797    12.000000000000
         C            0.039494137830    -0.661333902877    -0.073230656812    12.000000000000
         S            3.995223659506    -1.198579707734    -0.153044513810    31.972071174400
         C            5.139047446911     0.198227879204    -0.316612857408    12.000000000000
         O           -3.358611905469    -1.785065766940    -0.228199154936    15.994914619570
         O           -1.763731680195     2.400542741588    -0.697620213996    15.994914619570
         H            3.140895667009     1.647163939634    -0.372958132592     1.007825032230
         H            0.843041633532     2.628501743884    -0.394559194665     1.007825032230
         H           -0.964503502142    -2.501057780448     0.089018569345     1.007825032230
         H            1.432340247223    -2.298470859653     0.020936802447     1.007825032230
         H            4.951234837074     0.758034661685    -1.239043262950     1.007825032230
         H            5.057964234505     0.876894533351     0.538465018358     1.007825032230
         H            6.141523673663    -0.228269116631    -0.350652205244     1.007825032230

  Nuclear repulsion = 1192.904984657134719
  Reference energy  = -1183.337457034732324

  ==> Basis Set <==

  Basis Set: 6-31+G*
    Blend: 6-31+G*
    Number of shells: 144
    Number of basis function: 322
    Number of Cartesian functions: 322
    Spherical Harmonics?: false
    Max angular momentum: 2

  ==> CGRSolver (by Rob Parrish) <==

[...]
	   Coordinate                Previous        Force       Change         New 
	   ----------                --------       ------       ------       ------
	    1 R(1,2)          =      1.371654     0.000361     0.000107     1.371761
	    2 R(1,12)         =      1.405306    -0.001033    -0.000227     1.405080
	    3 R(1,19)         =      1.017658     0.004725     0.000953     1.018611
	    4 R(2,3)          =      1.535721    -0.001464    -0.000530     1.535190
	    5 R(2,15)         =      1.224953    -0.001162    -0.000157     1.224796
	    6 R(3,4)          =      1.346625     0.000847     0.000163     1.346788
	    7 R(3,5)          =      1.392676    -0.001813    -0.000411     1.392265
	    8 R(3,6)          =      1.536542     0.000032    -0.000197     1.536346
	    9 R(6,7)          =      1.466873     0.000014    -0.000054     1.466820
	   10 R(6,16)         =      1.227554    -0.002069    -0.000259     1.227296
	   11 R(7,8)          =      1.398345     0.000570     0.000075     1.398420
	   12 R(7,12)         =      1.407722    -0.001235    -0.000307     1.407415
	   13 R(8,9)          =      1.389276     0.000114     0.000029     1.389305
	   14 R(8,18)         =      1.087870     0.000074     0.000030     1.087900
	   15 R(9,10)         =      1.405737     0.000082     0.000019     1.405757
	   16 R(9,17)         =      1.084619    -0.000145    -0.000045     1.084574
	   17 R(10,11)        =      1.402446     0.000302     0.000059     1.402505
	   18 R(10,13)        =      1.758524     0.000625     0.000188     1.758713
	   19 R(11,12)        =      1.391963     0.000116     0.000017     1.391980
	   20 R(11,20)        =      1.090102    -0.000741    -0.000184     1.089918
	   21 R(13,14)        =      1.804841    -0.002824    -0.000877     1.803964
	   22 R(14,21)        =      1.091690     0.000461     0.000140     1.091830
	   23 R(14,22)        =      1.091452     0.001618     0.000427     1.091879
	   24 R(14,23)        =      1.091729     0.002284     0.000600     1.092329
	   25 B(1,2,3)        =    113.119701    -0.000001     0.014083   113.133784
	   26 B(1,2,15)       =    123.967780     0.000010     0.037080   124.004860
	   27 B(1,12,7)       =    120.799328    -0.000008    -0.029209   120.770119
	   28 B(1,12,11)      =    119.350340    -0.000000     0.002923   119.353262
	   29 B(2,1,12)       =    125.677798     0.000008     0.006847   125.684645
	   30 B(2,1,19)       =    114.725769    -0.000006    -0.001752   114.724017
	   31 B(2,3,4)        =    110.111351     0.000006     0.037850   110.149201
	   32 B(2,3,5)        =    105.771196     0.000005     0.031643   105.802840
	   33 B(2,3,6)        =    115.319436    -0.000004    -0.017695   115.301741
	   34 B(3,2,15)       =    122.783022    -0.000009    -0.063868   122.719154
	   35 B(3,6,7)        =    113.483269     0.000002     0.041117   113.524386
	   36 B(3,6,16)       =    120.857168    -0.000003    -0.023471   120.833697
	   37 B(4,3,5)        =    108.324180     0.000001     0.008346   108.332526
	   38 B(4,3,6)        =    111.406973    -0.000001     0.011621   111.418594
	   39 B(5,3,6)        =    105.429406    -0.000006    -0.074761   105.354645
	   40 B(6,7,8)        =    120.938382    -0.000002    -0.005183   120.933199
	   41 B(6,7,12)       =    119.618071     0.000004     0.028039   119.646110
	   42 B(7,6,16)       =    125.536290     0.000001    -0.001499   125.534791
	   43 B(7,8,9)        =    121.004449    -0.000002    -0.006548   120.997901
	   44 B(7,8,18)       =    118.271099     0.000002     0.010013   118.281113
	   45 B(7,12,11)      =    119.827665     0.000008     0.031861   119.859526
	   46 B(8,7,12)       =    119.169036    -0.000002    -0.000682   119.168354
	   47 B(8,9,10)       =    119.806893     0.000002     0.013546   119.820439
	   48 B(8,9,17)       =    119.015954     0.000002     0.012651   119.028605
	   49 B(9,8,18)       =    120.681730     0.000000     0.003427   120.685157
	   50 B(9,10,11)      =    119.320101    -0.000000    -0.002435   119.317666
	   51 B(9,10,13)      =    124.613719    -0.000003    -0.009218   124.604501
	   52 B(10,9,17)      =    121.132801    -0.000003    -0.017705   121.115096
	   53 B(10,11,12)     =    120.666406    -0.000005    -0.013904   120.652502
	   54 B(10,11,20)     =    119.630144     0.000002     0.009461   119.639605
	   55 B(10,13,14)     =    102.795288     0.000003     0.010892   102.806180
	   56 B(11,10,13)     =    116.031311     0.000004     0.017628   116.048939
	   57 B(12,1,19)      =    118.463699    -0.000001     0.004530   118.468228
	   58 B(12,11,20)     =    119.646711     0.000004     0.011158   119.657870
	   59 B(13,14,21)     =    112.056116     0.000000    -0.029661   112.026455
	   60 B(13,14,22)     =    111.559882     0.000002     0.010349   111.570231
	   61 B(13,14,23)     =    105.614400    -0.000004    -0.023576   105.590825
	   62 B(21,14,22)     =    110.514458    -0.000004    -0.020957   110.493501
	   63 B(21,14,23)     =    108.387394     0.000001     0.015975   108.403369
	   64 B(22,14,23)     =    108.482031     0.000005     0.051474   108.533505
	   65 D(1,2,3,4)      =    163.036705    -0.000000     0.048445   163.085150
	   66 D(1,2,3,5)      =    -80.134748     0.000001     0.094822   -80.039927
	   67 D(1,2,3,6)      =     35.934579    -0.000000     0.013979    35.948558
	   68 D(1,12,7,6)     =     -2.907008     0.000002     0.256838    -2.650169
	   69 D(1,12,7,8)     =   -176.946762     0.000000     0.012100  -176.934662
	   70 D(1,12,11,10)   =    177.385949    -0.000000    -0.019985   177.365963
	   71 D(1,12,11,20)   =      0.135387    -0.000001    -0.187964    -0.052577
	   72 D(2,1,12,7)     =     -0.786412    -0.000001    -0.118625    -0.905037
	   73 D(2,1,12,11)    =    177.478746     0.000001     0.110174   177.588920
	   74 D(2,3,6,7)      =    -39.500412     0.000001     0.112670   -39.387742
	   75 D(2,3,6,16)     =    144.319780    -0.000001    -0.146056   144.173724
	   76 D(3,2,1,12)     =    -16.158879    -0.000001    -0.025171   -16.184050
	   77 D(3,2,1,19)     =    176.267786    -0.000001    -0.077821   176.189965
	   78 D(3,6,7,8)      =   -163.061700    -0.000000     0.010673  -163.051027
	   79 D(3,6,7,12)     =     23.006410    -0.000002    -0.238802    22.767607
	   80 D(4,3,2,15)     =    -20.952167    -0.000001    -0.140388   -21.092555
	   81 D(4,3,6,7)      =   -165.945413    -0.000000     0.064774  -165.880639
	   82 D(4,3,6,16)     =     17.874779    -0.000002    -0.193952    17.680826
	   83 D(5,3,2,15)     =     95.876380     0.000000    -0.094011    95.782369
	   84 D(5,3,6,7)      =     76.763146     0.000001     0.092492    76.855637
	   85 D(5,3,6,16)     =    -99.416663    -0.000001    -0.166234   -99.582897
	   86 D(6,3,2,15)     =   -148.054293    -0.000001    -0.174854  -148.229147
	   87 D(6,7,8,9)      =   -177.982500    -0.000000    -0.023216  -178.005716
	   88 D(6,7,8,18)     =      4.379034    -0.000002    -0.222070     4.156964
	   89 D(6,7,12,11)    =    178.836063     0.000000     0.027393   178.863456
	   90 D(7,8,9,10)     =      2.710495    -0.000001    -0.217955     2.492540
	   91 D(7,8,9,17)     =   -179.683828     0.000000     0.022945  -179.660884
	   92 D(7,12,1,19)    =    166.367219    -0.000000    -0.064878   166.302340
	   93 D(7,12,11,10)   =     -4.331771     0.000001     0.205626    -4.126146
	   94 D(7,12,11,20)   =    178.417667    -0.000000     0.037647   178.455314
	   95 D(8,7,6,16)     =     12.907918     0.000002     0.282826    13.190744
	   96 D(8,7,12,11)    =      4.796309    -0.000001    -0.217345     4.578963
	   97 D(8,9,10,11)    =     -2.133724     0.000001     0.198732    -1.934992
	   98 D(8,9,10,13)    =   -179.896909    -0.000000    -0.002201  -179.899110
	   99 D(9,8,7,12)     =     -4.023779     0.000001     0.226805    -3.796974
	  100 D(9,10,11,12)   =      2.978646    -0.000001    -0.196163     2.782483
	  101 D(9,10,11,20)   =   -179.770340     0.000000    -0.028168  -179.798508
	  102 D(9,10,13,14)   =      4.263070     0.000002     0.176904     4.439974
	  103 D(10,9,8,18)    =   -179.707917     0.000000    -0.014177  -179.722094
	  104 D(10,13,14,21)  =    -65.552259    -0.000000    -0.057580   -65.609839
	  105 D(10,13,14,22)  =     58.964652    -0.000001    -0.099790    58.864862
	  106 D(10,13,14,23)  =    176.632356    -0.000000    -0.046814   176.585543
	  107 D(11,10,9,17)   =   -179.687584    -0.000001    -0.048067  -179.735650
	  108 D(11,10,13,14)  =   -173.566505     0.000000    -0.017716  -173.584221
	  109 D(11,12,1,19)   =    -15.367623     0.000001     0.163921   -15.203702
	  110 D(12,1,2,15)    =    167.884793     0.000001     0.171162   168.055955
	  111 D(12,7,6,16)    =   -161.023972     0.000000     0.033350  -160.990622
	  112 D(12,7,8,18)    =    178.337755    -0.000000     0.027951   178.365706
	  113 D(12,11,10,13)  =   -179.070005     0.000000    -0.012633  -179.082638
	  114 D(13,10,9,17)   =      2.549232    -0.000002    -0.249000     2.300232
	  115 D(13,10,11,20)  =     -1.818991     0.000001     0.155361    -1.663630
	  116 D(15,2,1,19)    =      0.311458     0.000001     0.118512     0.429971
	  117 D(17,9,8,18)    =     -2.102240     0.000002     0.226723    -1.875518
	  118 R(5,12)         =      3.273312    -0.000953    -0.001106     3.272207
	  119 R(1,X)          =     -1.094218     0.000848     0.000251    -1.093966
	  120 R(1,Y)          =     -1.487434     0.002138     0.000513    -1.486921
	  121 R(1,Z)          =      0.044734    -0.000017    -0.000264     0.044470
	  122 R(2,X)          =     -2.393766     0.000118     0.000054    -2.393712
	  123 R(2,Y)          =     -1.084690     0.001164     0.000656    -1.084035
	  124 R(2,Z)          =      0.219103    -0.000373    -0.001225     0.217878
	  125 R(3,X)          =     -2.518913    -0.000710    -0.000381    -2.519293
	  126 R(3,Y)          =      0.393911    -0.000575    -0.000223     0.393687
	  127 R(3,Z)          =      0.614722     0.000186    -0.000136     0.614586
	  128 R(4,X)          =     -3.779309    -0.001173    -0.000355    -3.779664
	  129 R(4,Y)          =      0.822438     0.000760     0.000497     0.822935
	  130 R(4,Z)          =      0.411829     0.000262     0.000146     0.411975
	  131 R(5,X)          =     -2.254066    -0.000231     0.000094    -2.253972
	  132 R(5,Y)          =      0.443890     0.000181    -0.000430     0.443460
	  133 R(5,Z)          =      1.981069    -0.001784    -0.000640     1.980429
	  134 R(6,X)          =     -1.494494    -0.000292     0.000150    -1.494344
	  135 R(6,Y)          =      1.336973    -0.000608    -0.000031     1.336942
	  136 R(6,Z)          =     -0.035019     0.000723     0.001447    -0.033572
	  137 R(7,X)          =     -0.148627    -0.000370    -0.000152    -0.148779
	  138 R(7,Y)          =      0.761464    -0.000701    -0.000241     0.761223
	  139 R(7,Z)          =     -0.130673    -0.000028    -0.000699    -0.131372
	  140 R(8,X)          =      0.966094    -0.000216    -0.000026     0.966068
	  141 R(8,Y)          =      1.574023     0.000115     0.000062     1.574085
	  142 R(8,Z)          =     -0.359832     0.000136     0.000539    -0.359292
	  143 R(9,X)          =      2.235941    -0.000207    -0.000209     2.235731
	  144 R(9,Y)          =      1.026208    -0.000005    -0.000059     1.026150
	  145 R(9,Z)          =     -0.492029    -0.000481    -0.001024    -0.493054
	  146 R(10,X)         =      2.402661     0.000377     0.000288     2.402949
	  147 R(10,Y)         =     -0.369037    -0.000002     0.000030    -0.369007
	  148 R(10,Z)         =     -0.452141     0.000072     0.000650    -0.451491
	  149 R(11,X)         =      1.285490     0.000336     0.000191     1.285682
	  150 R(11,Y)         =     -1.188209    -0.000460    -0.000183    -1.188393
	  151 R(11,Z)         =     -0.233643     0.000079    -0.000269    -0.233912
	  152 R(12,X)         =      0.012517     0.000737     0.000449     0.012966
	  153 R(12,Y)         =     -0.636952     0.000674     0.000155    -0.636798
	  154 R(12,Z)         =     -0.118683     0.000492     0.001167    -0.117515
	  155 R(13,X)         =      3.947657     0.001617     0.000542     3.948198
	  156 R(13,Y)         =     -1.195174     0.001199     0.000437    -1.194737
	  157 R(13,Z)         =     -0.603453    -0.001078    -0.001156    -0.604609
	  158 R(14,X)         =      5.125925    -0.000687    -0.000067     5.125859
	  159 R(14,Y)         =      0.170228    -0.000493    -0.000136     0.170092
	  160 R(14,Z)         =     -0.672828    -0.000033     0.000087    -0.672741
	  161 R(15,X)         =     -3.358681     0.000189    -0.000135    -3.358816
	  162 R(15,Y)         =     -1.835802     0.002876     0.000973    -1.834829
	  163 R(15,Z)         =      0.146442     0.000581     0.000668     0.147110
	  164 R(16,X)         =     -1.806233    -0.000337    -0.000551    -1.806784
	  165 R(16,Y)         =      2.479922    -0.002771    -0.000963     2.478959
	  166 R(16,Z)         =     -0.356540     0.000979    -0.000191    -0.356731
	  167 R(17,X)         =      3.078671     0.000016     0.000091     3.078762
	  168 R(17,Y)         =      1.686980    -0.000379    -0.000149     1.686832
	  169 R(17,Z)         =     -0.664031     0.000084     0.000390    -0.663642
	  170 R(18,X)         =      0.820134    -0.000301    -0.000199     0.819935
	  171 R(18,Y)         =      2.651536     0.000160     0.000036     2.651572
	  172 R(18,Z)         =     -0.393333    -0.000453    -0.000518    -0.393851
	  173 R(19,X)         =     -0.979252     0.001024     0.000423    -0.978830
	  174 R(19,Y)         =     -2.477722    -0.002558    -0.000500    -2.478221
	  175 R(19,Z)         =     -0.159572    -0.000693    -0.000007    -0.159579
	  176 R(20,X)         =      1.409589     0.000233     0.000253     1.409842
	  177 R(20,Y)         =     -2.270638     0.000291     0.000038    -2.270600
	  178 R(20,Z)         =     -0.198005     0.000594     0.000592    -0.197413
	  179 R(21,X)         =      4.999830    -0.000869    -0.000267     4.999563
	  180 R(21,Y)         =      0.775197     0.000330     0.000171     0.775368
	  181 R(21,Z)         =     -1.572772    -0.000013     0.000151    -1.572621
	  182 R(22,X)         =      5.068018    -0.001299    -0.000750     5.067268
	  183 R(22,Y)         =      0.795712     0.000491     0.000086     0.795798
	  184 R(22,Z)         =      0.219743     0.001217     0.000409     0.220152
	  185 R(23,X)         =      6.113063     0.001196     0.000305     6.113368
	  186 R(23,Y)         =     -0.294882    -0.001828    -0.000740    -0.295622
	  187 R(23,Z)         =     -0.706051    -0.000450    -0.000119    -0.706170
	 ---------------------------------------------------------------------------
	Successfully symmetrized geometry.

  ==> Convergence Check <==

  Measures of convergence in internal coordinates in au.
  Criteria marked as inactive (o), active & met (*), and active & unmet ( ).
  --------------------------------------------------------------------------------------------- ~
   Step     Total Energy     Delta E     MAX Force     RMS Force      MAX Disp      RMS Disp    ~
  --------------------------------------------------------------------------------------------- ~
    Convergence Criteria             o    2.50e-03 *    1.70e-03 *    1.00e-02 *    6.70e-03 *  ~
  --------------------------------------------------------------------------------------------- ~
      1   -1185.70437412   -1.19e+03 o    5.74e-04 *    1.03e-04 *    4.94e-03 *    1.46e-03 *  ~
  ---------------------------------------------------------------------------------------------


  **** Optimization is complete! (in 1 steps) ****

  ==> Optimization Summary <==

  Measures of convergence in internal coordinates in au.
  --------------------------------------------------------------------------------------------------------------- ~
   Step         Total Energy             Delta E       MAX Force       RMS Force        MAX Disp        RMS Disp  ~
  --------------------------------------------------------------------------------------------------------------- ~
      1   -1185.704374119189  -1185.704374119189      0.00057351      0.00010280      0.00493624      0.00146437  ~
  --------------------------------------------------------------------------------------------------------------- ~

	Writing optimization data to binary file.
	Final energy is  -1185.7043741191894
	Final (previous) structure:
	Cartesian Geometry (in Angstrom)
	    N    -1.0942177704  -1.4874343405   0.0447341879
	    C    -2.3937662747  -1.0846903888   0.2191025523
	    C    -2.5189127845   0.3939108647   0.6147215889
	    F    -3.7793085550   0.8224379438   0.4118287863
	    F    -2.2540656813   0.4438902229   1.9810689218
	    C    -1.4944939496   1.3369726282  -0.0350194150
	    C    -0.1486268477   0.7614644581  -0.1306734727
	    C     0.9660939701   1.5740231606  -0.3598315436
	    C     2.2359406449   1.0262082033  -0.4920294129
	    C     2.4026610588  -0.3690373166  -0.4521414726
	    C     1.2854903857  -1.1882090320  -0.2336430690
	    C     0.0125168388  -0.6369523483  -0.1186828562
	    S     3.9476567665  -1.1951738022  -0.6034529039
	    C     5.1259252199   0.1702278712  -0.6728277994
	    O    -3.3586812427  -1.8358019902   0.1464417803
	    O    -1.8062327594   2.4799218695  -0.3565402751
	    H     3.0786706202   1.6869804981  -0.6640313748
	    H     0.8201341372   2.6515363068  -0.3933333423
	    H    -0.9792523039  -2.4777216643  -0.1595716690
	    H     1.4095893669  -2.2706379769  -0.1980053776
	    H     4.9998304561   0.7751973631  -1.5727718244
	    H     5.0680177496   0.7957121946   0.2197432009
	    H     6.1130629653  -0.2948823506  -0.7060513283
	Saving final (previous) structure.
			--------------------------
			 OPTKING Finished Execution 
			--------------------------

    Final optimized geometry and variables:
    Molecular point group: c1
    Full point group: C1

    Geometry (in Angstrom), charge = 0, multiplicity = 1:

    N           -1.094217774737    -1.487434346328     0.044734188051
    C           -2.393766284091    -1.084690393087     0.219102553115
    C           -2.518912794393     0.393910866200     0.614721591325
    F           -3.779308569811     0.822437947023     0.411828787957
    F           -2.254065690124     0.443890224611     1.981068929562
    C           -1.494493955435     1.336972633504    -0.035019415147
    C           -0.148626848319     0.761464461058    -0.130673473182
    C            0.966093973883     1.574023166747    -0.359831544999
    C            2.235940653644     1.026208207308    -0.492029414843
    C            2.402661068281    -0.369037318023    -0.452141474379
    C            1.285490390705    -1.188209036645    -0.233643069962
    C            0.012516838812    -0.636952350839    -0.118682856692
    S            3.947656782038    -1.195173806920    -0.603452906238
    C            5.125925240059     0.170227871907    -0.672827802055
    O           -3.358681255890    -1.835801997393     0.146441780890
    O           -1.806232766470     2.479921879276    -0.356540276490
    H            3.078670632314     1.686980504747    -0.664031377417
    H            0.820134140470     2.651536317192    -0.393333343872
    H           -0.979252307753    -2.477721674037    -0.159571669629
    H            1.409589372453    -2.270637985816    -0.198005378341
    H            4.999830475795     0.775197366197    -1.572771830540
    H            5.068017769485     0.795712197720     0.219743201791
    H            6.113062989299    -0.294882351719    -0.706051331098

	Removing binary optimization data file.
	Cleaning optimization helper files.

    Psi4 stopped on: Monday, 21 June 2021 09:49PM
    Psi4 wall time for execution: 0:20:35.70

*** Psi4 exiting successfully. Buy a developer a beer!
