
    -----------------------------------------------------------------------
          Psi4: An Open-Source Ab Initio Electronic Structure Package
                               Psi4 1.3.2 release

                         Git: Rev {HEAD} ecbda83 


    R. M. Parrish, L. A. Burns, D. G. A. Smith, A. C. Simmonett,
    A. E. DePrince III, E. G. Hohenstein, U. Bozkaya, A. Yu. Sokolov,
    R. Di Remigio, R. M. Richard, J. F. Gonthier, A. M. James,
    H. R. McAlexander, A. Kumar, M. Saitow, X. Wang, B. P. Pritchard,
    P. Verma, H. F. Schaefer III, K. Patkowski, R. A. King, E. F. Valeev,
    F. A. Evangelista, J. M. Turney, T. D. Crawford, and C. D. Sherrill,
    J. Chem. Theory Comput. 13(7) pp 3185--3197 (2017).
    (doi: 10.1021/acs.jctc.7b00174)


                         Additional Contributions by
    P. Kraus, H. Kruse, M. H. Lechner, M. C. Schieber, R. A. Shaw,
    A. Alenaizan, R. Galvelis, Z. L. Glick, S. Lehtola, and J. P. Misiewicz

    -----------------------------------------------------------------------


    Psi4 started on: Monday, 21 June 2021 09:50PM

    Process ID: 17236
    Host:       cpu-spot-dy-c5n2xlarge-1
    PSIDATADIR: /fsx/users/francis/anaconda3/envs/poltype-dev/share/psi4
    Memory:     500.0 MiB
    Threads:    1
    
  ==> Input File <==

--------------------------------------------------------------------------
molecule { 
0 1
N -1.094217774737 -1.487434346328 0.044734188051
C -2.393766284091 -1.084690393087 0.219102553115
C -2.518912794393 0.393910866200 0.614721591325
F -3.779308569811 0.822437947023 0.411828787957
F -2.254065690124 0.443890224611 1.981068929562
C -1.494493955435 1.336972633504 -0.035019415147
C -0.148626848319 0.761464461058 -0.130673473182
C 0.966093973883 1.574023166747 -0.359831544999
C 2.235940653644 1.026208207308 -0.492029414843
C 2.402661068281 -0.369037318023 -0.452141474379
C 1.285490390705 -1.188209036645 -0.233643069962
C 0.012516838812 -0.636952350839 -0.118682856692
S 3.947656782038 -1.195173806920 -0.603452906238
C 5.125925240059 0.170227871907 -0.672827802055
O -3.358681255890 -1.835801997393 0.146441780890
O -1.806232766470 2.479921879276 -0.356540276490
H 3.078670632314 1.686980504747 -0.664031377417
H 0.820134140470 2.651536317192 -0.393333343872
H -0.979252307753 -2.477721674037 -0.159571669629
H 1.409589372453 -2.270637985816 -0.198005378341
H 4.999830475795 0.775197366197 -1.572771830540
H 5.068017769485 0.795712197720 0.219743201791
H 6.113062989299 -0.294882351719 -0.706051331098
}
memory 16GB
set_num_threads(8)
psi4_io.set_default_path("/scratch/Psi4-ligand")
set maxiter 500
set freeze_core True
set PROPERTIES_ORIGIN ["COM"]
set cubeprop_tasks ['esp']
E, wfn = properties('mp2/aug-cc-pVDZ',properties=['dipole'],return_wfn=True)
cubeprop(wfn)
fchk(wfn, "ligand-esp.fchk")
oeprop(wfn,"GRID_ESP","WIBERG_LOWDIN_INDICES","MULLIKEN_CHARGES")
clean()
--------------------------------------------------------------------------

  Memory set to  14.901 GiB by Python driver.
  Threads set to 8 by Python driver.
    SCF Algorithm Type (re)set to DF.

*** tstart() called on cpu-spot-dy-c5n2xlarge-1
*** at Mon Jun 21 21:50:33 2021

   => Loading Basis Set <=

    Name: AUG-CC-PVDZ
    Role: ORBITAL
    Keyword: BASIS
    atoms 1             entry N          line   214 file /fsx/users/francis/anaconda3/envs/poltype-dev/share/psi4/basis/aug-cc-pvdz.gbs 
    atoms 2-3, 6-12, 14 entry C          line   178 file /fsx/users/francis/anaconda3/envs/poltype-dev/share/psi4/basis/aug-cc-pvdz.gbs 
    atoms 4-5           entry F          line   286 file /fsx/users/francis/anaconda3/envs/poltype-dev/share/psi4/basis/aug-cc-pvdz.gbs 
    atoms 13            entry S          line   698 file /fsx/users/francis/anaconda3/envs/poltype-dev/share/psi4/basis/aug-cc-pvdz.gbs 
    atoms 15-16         entry O          line   250 file /fsx/users/francis/anaconda3/envs/poltype-dev/share/psi4/basis/aug-cc-pvdz.gbs 
    atoms 17-23         entry H          line    36 file /fsx/users/francis/anaconda3/envs/poltype-dev/share/psi4/basis/aug-cc-pvdz.gbs 


         ---------------------------------------------------------
                                   SCF
               by Justin Turney, Rob Parrish, Andy Simmonett
                          and Daniel G. A. Smith
                              RHF Reference
                        8 Threads,  15258 MiB Core
         ---------------------------------------------------------

  ==> Geometry <==

    Molecular point group: c1
    Full point group: C1

    Geometry (in Angstrom), charge = 0, multiplicity = 1:

       Center              X                  Y                   Z               Mass       
    ------------   -----------------  -----------------  -----------------  -----------------
         N           -1.094217774737    -1.487434346328     0.044734188051    14.003074004430
         C           -2.393766284091    -1.084690393087     0.219102553115    12.000000000000
         C           -2.518912794393     0.393910866200     0.614721591325    12.000000000000
         F           -3.779308569811     0.822437947023     0.411828787957    18.998403162730
         F           -2.254065690124     0.443890224611     1.981068929562    18.998403162730
         C           -1.494493955435     1.336972633504    -0.035019415147    12.000000000000
         C           -0.148626848319     0.761464461058    -0.130673473182    12.000000000000
         C            0.966093973883     1.574023166747    -0.359831544999    12.000000000000
         C            2.235940653644     1.026208207308    -0.492029414843    12.000000000000
         C            2.402661068281    -0.369037318023    -0.452141474379    12.000000000000
         C            1.285490390705    -1.188209036645    -0.233643069962    12.000000000000
         C            0.012516838812    -0.636952350839    -0.118682856692    12.000000000000
         S            3.947656782038    -1.195173806920    -0.603452906238    31.972071174400
         C            5.125925240059     0.170227871907    -0.672827802055    12.000000000000
         O           -3.358681255890    -1.835801997393     0.146441780890    15.994914619570
         O           -1.806232766470     2.479921879276    -0.356540276490    15.994914619570
         H            3.078670632314     1.686980504747    -0.664031377417     1.007825032230
         H            0.820134140470     2.651536317192    -0.393333343872     1.007825032230
         H           -0.979252307753    -2.477721674037    -0.159571669629     1.007825032230
         H            1.409589372453    -2.270637985816    -0.198005378341     1.007825032230
         H            4.999830475795     0.775197366197    -1.572771830540     1.007825032230
         H            5.068017769485     0.795712197720     0.219743201791     1.007825032230
         H            6.113062989299    -0.294882351719    -0.706051331098     1.007825032230

  Running in c1 symmetry.

  Rotational constants: A =      0.03934  B =      0.00846  C =      0.00735 [cm^-1]
  Rotational constants: A =   1179.45055  B =    253.64307  C =    220.24290 [MHz]
  Nuclear repulsion = 1192.192288693015144

  Charge       = 0
  Multiplicity = 1
  Electrons    = 124
  Nalpha       = 62
  Nbeta        = 62

  ==> Algorithm <==

  SCF Algorithm Type is DF.
  DIIS enabled.
  MOM disabled.
  Fractional occupation disabled.
  Guess Type is SAD.
  Energy threshold   = 1.00e-10
  Density threshold  = 1.00e-10
  Integral threshold = 0.00e+00

  ==> Primary Basis <==

  Basis Set: AUG-CC-PVDZ
    Blend: AUG-CC-PVDZ
    Number of shells: 181
    Number of basis function: 435
    Number of Cartesian functions: 467
    Spherical Harmonics?: true
    Max angular momentum: 2

   => Loading Basis Set <=

    Name: (AUG-CC-PVDZ AUX)
    Role: JKFIT
    Keyword: DF_BASIS_SCF
    atoms 1             entry N          line   212 file /fsx/users/francis/anaconda3/envs/poltype-dev/share/psi4/basis/aug-cc-pvdz-jkfit.gbs 
    atoms 2-3, 6-12, 14 entry C          line   154 file /fsx/users/francis/anaconda3/envs/poltype-dev/share/psi4/basis/aug-cc-pvdz-jkfit.gbs 
    atoms 4-5           entry F          line   328 file /fsx/users/francis/anaconda3/envs/poltype-dev/share/psi4/basis/aug-cc-pvdz-jkfit.gbs 
    atoms 13            entry S          line   690 file /fsx/users/francis/anaconda3/envs/poltype-dev/share/psi4/basis/aug-cc-pvdz-jkfit.gbs 
    atoms 15-16         entry O          line   270 file /fsx/users/francis/anaconda3/envs/poltype-dev/share/psi4/basis/aug-cc-pvdz-jkfit.gbs 
    atoms 17-23         entry H          line    70 file /fsx/users/francis/anaconda3/envs/poltype-dev/share/psi4/basis/aug-cc-pvdz-jkfit.gbs 

  ==> Pre-Iterations <==

   -------------------------------------------------------
    Irrep   Nso     Nmo     Nalpha   Nbeta   Ndocc  Nsocc
   -------------------------------------------------------
     A        435     435       0       0       0       0
   -------------------------------------------------------
    Total     435     435      62      62      62       0
   -------------------------------------------------------

  ==> Integral Setup <==

  DFHelper Memory: AOs need 2.194 GiB; user supplied 11.176 GiB. Using in-core AOs.

  ==> MemDFJK: Density-Fitted J/K Matrices <==

    J tasked:                   Yes
    K tasked:                   Yes
    wK tasked:                   No
    OpenMP threads:               8
    Memory [MiB]:             11444
    Algorithm:                 Disk
    Schwarz Cutoff:           1E-12
    Mask sparsity (%):       7.8541
    Fitting Condition:        1E-10

   => Auxiliary Basis Set <=

  Basis Set: (AUG-CC-PVDZ AUX)
    Blend: AUG-CC-PVDZ-JKFIT
    Number of shells: 544
    Number of basis function: 1642
    Number of Cartesian functions: 1910
    Spherical Harmonics?: true
    Max angular momentum: 3

  Minimum eigenvalue in the overlap matrix is 1.3792133674E-06.
  Using Symmetric Orthogonalization.

  SCF Guess: Superposition of Atomic Densities via on-the-fly atomic UHF.

  ==> Iterations <==

                           Total Energy        Delta E     RMS |[F,P]|

   @DF-RHF iter SAD: -1182.84996310954170   -1.18285e+03   0.00000e+00 
   @DF-RHF iter   1: -1183.01973007608012   -1.69767e-01   2.00806e-03 DIIS
   @DF-RHF iter   2: -1183.29535358397220   -2.75624e-01   1.35655e-03 DIIS
   @DF-RHF iter   3: -1183.43144829801167   -1.36095e-01   2.76375e-04 DIIS
   @DF-RHF iter   4: -1183.44029271484169   -8.84442e-03   1.22752e-04 DIIS
   @DF-RHF iter   5: -1183.44223840790255   -1.94569e-03   2.92729e-05 DIIS
   @DF-RHF iter   6: -1183.44246153009135   -2.23122e-04   1.39556e-05 DIIS
   @DF-RHF iter   7: -1183.44251964784189   -5.81178e-05   5.90056e-06 DIIS
   @DF-RHF iter   8: -1183.44252915723223   -9.50939e-06   2.31856e-06 DIIS
   @DF-RHF iter   9: -1183.44253069415072   -1.53692e-06   1.02696e-06 DIIS
   @DF-RHF iter  10: -1183.44253101531194   -3.21161e-07   3.86522e-07 DIIS
   @DF-RHF iter  11: -1183.44253107683903   -6.15271e-08   1.75226e-07 DIIS
   @DF-RHF iter  12: -1183.44253108944076   -1.26017e-08   7.71061e-08 DIIS
   @DF-RHF iter  13: -1183.44253109177862   -2.33786e-09   3.28692e-08 DIIS
   @DF-RHF iter  14: -1183.44253109229817   -5.19549e-10   1.54333e-08 DIIS
   @DF-RHF iter  15: -1183.44253109239298   -9.48148e-11   6.36855e-09 DIIS
   @DF-RHF iter  16: -1183.44253109241163   -1.86446e-11   2.56292e-09 DIIS
   @DF-RHF iter  17: -1183.44253109241254   -9.09495e-13   1.03459e-09 DIIS
   @DF-RHF iter  18: -1183.44253109241140    1.13687e-12   4.64407e-10 DIIS
   @DF-RHF iter  19: -1183.44253109241231   -9.09495e-13   1.73232e-10 DIIS
   @DF-RHF iter  20: -1183.44253109240890    3.41061e-12   8.49748e-11 DIIS
  Energy and wave function converged.


  ==> Post-Iterations <==

    Orbital Energies [Eh]
    ---------------------

    Doubly Occupied:                                                      

       1A    -91.994499     2A    -26.351239     3A    -26.346032  
       4A    -20.595799     5A    -20.585318     6A    -15.654497  
       7A    -11.459849     8A    -11.414224     9A    -11.382757  
      10A    -11.350975    11A    -11.327365    12A    -11.294396  
      13A    -11.292670    14A    -11.278711    15A    -11.278234  
      16A    -11.272590    17A     -8.996758    18A     -6.678914  
      19A     -6.677194    20A     -6.675294    21A     -1.686767  
      22A     -1.626072    23A     -1.429782    24A     -1.416622  
      25A     -1.311536    26A     -1.198717    27A     -1.120606  
      28A     -1.080570    29A     -1.056520    30A     -1.033706  
      31A     -0.938396    32A     -0.901610    33A     -0.880700  
      34A     -0.870834    35A     -0.813591    36A     -0.794802  
      37A     -0.784289    38A     -0.746386    39A     -0.737765  
      40A     -0.696444    41A     -0.692086    42A     -0.684583  
      43A     -0.672453    44A     -0.657332    45A     -0.651874  
      46A     -0.641058    47A     -0.640555    48A     -0.629993  
      49A     -0.622047    50A     -0.604062    51A     -0.592874  
      52A     -0.571818    53A     -0.551254    54A     -0.545461  
      55A     -0.539158    56A     -0.486954    57A     -0.483589  
      58A     -0.479900    59A     -0.451244    60A     -0.426605  
      61A     -0.356316    62A     -0.334665  

    Virtual:                                                              

      63A      0.022535    64A      0.023801    65A      0.030094  
      66A      0.036630    67A      0.046507    68A      0.057045  
      69A      0.062396    70A      0.072718    71A      0.077683  
      72A      0.084944    73A      0.090468    74A      0.092185  
      75A      0.095375    76A      0.101370    77A      0.114409  
      78A      0.116592    79A      0.120630    80A      0.122097  
      81A      0.122676    82A      0.130095    83A      0.133259  
      84A      0.141274    85A      0.143740    86A      0.147270  
      87A      0.150942    88A      0.156086    89A      0.157906  
      90A      0.160928    91A      0.167318    92A      0.168964  
      93A      0.172959    94A      0.177649    95A      0.185345  
      96A      0.186279    97A      0.189173    98A      0.200206  
      99A      0.204859   100A      0.207226   101A      0.209933  
     102A      0.217304   103A      0.222922   104A      0.226855  
     105A      0.227443   106A      0.231830   107A      0.240582  
     108A      0.247505   109A      0.250238   110A      0.257476  
     111A      0.260958   112A      0.263465   113A      0.273169  
     114A      0.280820   115A      0.283195   116A      0.290064  
     117A      0.295167   118A      0.300172   119A      0.303489  
     120A      0.307715   121A      0.316457   122A      0.321978  
     123A      0.327733   124A      0.334534   125A      0.337053  
     126A      0.341474   127A      0.346380   128A      0.351385  
     129A      0.353898   130A      0.356477   131A      0.362194  
     132A      0.364704   133A      0.373373   134A      0.375864  
     135A      0.378618   136A      0.384850   137A      0.394375  
     138A      0.398177   139A      0.400454   140A      0.407302  
     141A      0.408878   142A      0.412172   143A      0.420972  
     144A      0.422871   145A      0.426063   146A      0.429641  
     147A      0.432150   148A      0.437629   149A      0.441101  
     150A      0.448274   151A      0.455357   152A      0.459262  
     153A      0.463923   154A      0.466056   155A      0.469301  
     156A      0.477383   157A      0.483838   158A      0.493555  
     159A      0.494565   160A      0.507592   161A      0.511826  
     162A      0.521314   163A      0.528776   164A      0.534491  
     165A      0.539321   166A      0.543863   167A      0.552696  
     168A      0.560616   169A      0.568800   170A      0.580600  
     171A      0.585227   172A      0.592303   173A      0.596493  
     174A      0.603976   175A      0.607815   176A      0.609609  
     177A      0.614279   178A      0.624960   179A      0.634275  
     180A      0.639341   181A      0.647099   182A      0.649226  
     183A      0.652157   184A      0.656185   185A      0.663097  
     186A      0.672395   187A      0.678145   188A      0.684193  
     189A      0.688681   190A      0.692183   191A      0.703182  
     192A      0.706862   193A      0.714953   194A      0.725089  
     195A      0.727729   196A      0.734836   197A      0.737601  
     198A      0.754018   199A      0.757351   200A      0.763494  
     201A      0.771420   202A      0.776841   203A      0.778758  
     204A      0.784303   205A      0.789828   206A      0.799397  
     207A      0.817193   208A      0.825393   209A      0.828223  
     210A      0.841562   211A      0.845947   212A      0.847818  
     213A      0.853509   214A      0.858216   215A      0.860271  
     216A      0.875797   217A      0.876867   218A      0.888781  
     219A      0.896671   220A      0.903131   221A      0.907485  
     222A      0.924647   223A      0.927809   224A      0.930401  
     225A      0.939235   226A      0.942862   227A      0.947226  
     228A      0.953430   229A      0.974747   230A      0.981315  
     231A      0.993427   232A      0.996330   233A      0.999037  
     234A      1.009815   235A      1.019535   236A      1.032384  
     237A      1.034081   238A      1.049741   239A      1.057221  
     240A      1.066433   241A      1.068142   242A      1.086893  
     243A      1.099614   244A      1.114406   245A      1.120814  
     246A      1.122879   247A      1.133494   248A      1.140862  
     249A      1.163264   250A      1.167035   251A      1.183880  
     252A      1.190830   253A      1.204917   254A      1.217274  
     255A      1.230142   256A      1.236755   257A      1.242608  
     258A      1.253222   259A      1.265353   260A      1.272300  
     261A      1.285654   262A      1.291109   263A      1.303145  
     264A      1.306231   265A      1.322407   266A      1.330090  
     267A      1.342218   268A      1.352262   269A      1.375310  
     270A      1.389864   271A      1.400570   272A      1.418821  
     273A      1.434657   274A      1.440535   275A      1.450298  
     276A      1.454337   277A      1.460909   278A      1.476130  
     279A      1.482884   280A      1.494400   281A      1.504267  
     282A      1.510471   283A      1.532051   284A      1.540714  
     285A      1.546218   286A      1.556491   287A      1.577382  
     288A      1.592330   289A      1.599124   290A      1.612311  
     291A      1.616144   292A      1.632728   293A      1.642384  
     294A      1.652321   295A      1.658243   296A      1.675190  
     297A      1.685734   298A      1.704691   299A      1.709072  
     300A      1.716219   301A      1.721885   302A      1.727914  
     303A      1.737171   304A      1.754174   305A      1.766965  
     306A      1.777558   307A      1.783544   308A      1.790041  
     309A      1.802217   310A      1.804236   311A      1.819371  
     312A      1.824825   313A      1.837137   314A      1.842681  
     315A      1.859322   316A      1.870538   317A      1.878446  
     318A      1.879808   319A      1.889583   320A      1.895246  
     321A      1.908995   322A      1.917187   323A      1.939442  
     324A      1.946635   325A      1.950269   326A      1.962705  
     327A      1.972423   328A      1.980412   329A      1.997541  
     330A      2.015545   331A      2.025375   332A      2.038694  
     333A      2.045490   334A      2.053444   335A      2.061991  
     336A      2.073857   337A      2.077138   338A      2.095332  
     339A      2.102189   340A      2.109398   341A      2.127377  
     342A      2.140546   343A      2.146165   344A      2.163996  
     345A      2.166538   346A      2.187854   347A      2.196267  
     348A      2.215588   349A      2.225673   350A      2.229054  
     351A      2.235452   352A      2.247475   353A      2.261606  
     354A      2.273330   355A      2.276352   356A      2.294465  
     357A      2.309626   358A      2.315594   359A      2.327836  
     360A      2.338352   361A      2.357582   362A      2.376181  
     363A      2.387528   364A      2.395868   365A      2.416782  
     366A      2.423795   367A      2.433974   368A      2.453542  
     369A      2.484996   370A      2.515696   371A      2.531395  
     372A      2.533162   373A      2.550587   374A      2.564276  
     375A      2.565086   376A      2.578966   377A      2.597917  
     378A      2.608184   379A      2.633712   380A      2.647979  
     381A      2.676689   382A      2.688718   383A      2.722398  
     384A      2.731430   385A      2.755514   386A      2.780509  
     387A      2.824907   388A      2.843880   389A      2.852595  
     390A      2.857512   391A      2.891323   392A      2.910196  
     393A      2.916361   394A      2.921484   395A      2.960330  
     396A      3.001280   397A      3.026321   398A      3.076256  
     399A      3.120176   400A      3.172021   401A      3.197894  
     402A      3.253338   403A      3.310979   404A      3.378573  
     405A      3.411311   406A      3.441780   407A      3.522263  
     408A      3.607089   409A      3.654639   410A      3.716975  
     411A      3.762256   412A      3.784441   413A      3.802425  
     414A      3.811542   415A      3.825356   416A      3.826902  
     417A      3.846968   418A      3.881228   419A      3.986358  
     420A      4.000771   421A      4.016604   422A      4.150239  
     423A      4.177021   424A      4.262471   425A      4.622769  
     426A      5.008648   427A      5.015660   428A      5.060258  
     429A      5.085783   430A      5.108405   431A      5.132507  
     432A      5.146551   433A      5.176182   434A      5.223781  
     435A      5.277862  

    Final Occupation by Irrep:
              A 
    DOCC [    62 ]

  @DF-RHF Final Energy: -1183.44253109240890

   => Energetics <=

    Nuclear Repulsion Energy =           1192.1922886930151435
    One-Electron Energy =               -3996.5718153506354611
    Two-Electron Energy =                1620.9369955652114186
    Total Energy =                      -1183.4425310924088990

Computation Completed

*** tstop() called on cpu-spot-dy-c5n2xlarge-1 at Mon Jun 21 21:51:22 2021
Module time:
	user time   =     186.17 seconds =       3.10 minutes
	system time =      35.39 seconds =       0.59 minutes
	total time  =         49 seconds =       0.82 minutes
Total time:
	user time   =     186.17 seconds =       3.10 minutes
	system time =      35.39 seconds =       0.59 minutes
	total time  =         49 seconds =       0.82 minutes
   => Loading Basis Set <=

    Name: (AUG-CC-PVDZ AUX)
    Role: RIFIT
    Keyword: DF_BASIS_MP2
    atoms 1             entry N          line   158 file /fsx/users/francis/anaconda3/envs/poltype-dev/share/psi4/basis/aug-cc-pvdz-ri.gbs 
    atoms 2-3, 6-12, 14 entry C          line   112 file /fsx/users/francis/anaconda3/envs/poltype-dev/share/psi4/basis/aug-cc-pvdz-ri.gbs 
    atoms 4-5           entry F          line   250 file /fsx/users/francis/anaconda3/envs/poltype-dev/share/psi4/basis/aug-cc-pvdz-ri.gbs 
    atoms 13            entry S          line   516 file /fsx/users/francis/anaconda3/envs/poltype-dev/share/psi4/basis/aug-cc-pvdz-ri.gbs 
    atoms 15-16         entry O          line   204 file /fsx/users/francis/anaconda3/envs/poltype-dev/share/psi4/basis/aug-cc-pvdz-ri.gbs 
    atoms 17-23         entry H          line    30 file /fsx/users/francis/anaconda3/envs/poltype-dev/share/psi4/basis/aug-cc-pvdz-ri.gbs 


*** tstart() called on cpu-spot-dy-c5n2xlarge-1
*** at Mon Jun 21 21:51:22 2021


  //>>>>>>>>>>>>>>>>>>>>>>>>>>>>>>>>>>>//
  //               DFMP2               //
  //<<<<<<<<<<<<<<<<<<<<<<<<<<<<<<<<<<<//

	 --------------------------------------------------------
	                          DF-MP2                         
	      2nd-Order Density-Fitted Moller-Plesset Theory     
	              RMP2 Wavefunction,   8 Threads             
	                                                         
	        Rob Parrish, Justin Turney, Andy Simmonett,      
	           Ed Hohenstein, and C. David Sherrill          
	 --------------------------------------------------------

   => Auxiliary Basis Set <=

  Basis Set: (AUG-CC-PVDZ AUX)
    Blend: AUG-CC-PVDZ-RI
    Number of shells: 421
    Number of basis function: 1333
    Number of Cartesian functions: 1575
    Spherical Harmonics?: true
    Max angular momentum: 3

	 --------------------------------------------------------
	                 NBF =   435, NAUX =  1333
	 --------------------------------------------------------
	   CLASS    FOCC     OCC    AOCC    AVIR     VIR    FVIR
	   PAIRS      20      62      42     373     373       0
	 --------------------------------------------------------

  DFHelper Memory: AOs need 2.194 GiB; user supplied 11.176 GiB. Using in-core AOs.


         ------------------------------------------------------------
                                     CPHF                           
                                  Rob Parrish                       
         ------------------------------------------------------------

  ==> Geometry <==

    Molecular point group: c1
    Full point group: C1

    Geometry (in Angstrom), charge = 0, multiplicity = 1:

       Center              X                  Y                   Z               Mass       
    ------------   -----------------  -----------------  -----------------  -----------------
         N           -1.094217774737    -1.487434346328     0.044734188051    14.003074004430
         C           -2.393766284091    -1.084690393087     0.219102553115    12.000000000000
         C           -2.518912794393     0.393910866200     0.614721591325    12.000000000000
         F           -3.779308569811     0.822437947023     0.411828787957    18.998403162730
         F           -2.254065690124     0.443890224611     1.981068929562    18.998403162730
         C           -1.494493955435     1.336972633504    -0.035019415147    12.000000000000
         C           -0.148626848319     0.761464461058    -0.130673473182    12.000000000000
         C            0.966093973883     1.574023166747    -0.359831544999    12.000000000000
         C            2.235940653644     1.026208207308    -0.492029414843    12.000000000000
         C            2.402661068281    -0.369037318023    -0.452141474379    12.000000000000
         C            1.285490390705    -1.188209036645    -0.233643069962    12.000000000000
         C            0.012516838812    -0.636952350839    -0.118682856692    12.000000000000
         S            3.947656782038    -1.195173806920    -0.603452906238    31.972071174400
         C            5.125925240059     0.170227871907    -0.672827802055    12.000000000000
         O           -3.358681255890    -1.835801997393     0.146441780890    15.994914619570
         O           -1.806232766470     2.479921879276    -0.356540276490    15.994914619570
         H            3.078670632314     1.686980504747    -0.664031377417     1.007825032230
         H            0.820134140470     2.651536317192    -0.393333343872     1.007825032230
         H           -0.979252307753    -2.477721674037    -0.159571669629     1.007825032230
         H            1.409589372453    -2.270637985816    -0.198005378341     1.007825032230
         H            4.999830475795     0.775197366197    -1.572771830540     1.007825032230
         H            5.068017769485     0.795712197720     0.219743201791     1.007825032230
         H            6.113062989299    -0.294882351719    -0.706051331098     1.007825032230

  Nuclear repulsion = 1192.192288693015144
  Reference energy  = -1183.442531092408899

  ==> Basis Set <==

  Basis Set: AUG-CC-PVDZ
    Blend: AUG-CC-PVDZ
    Number of shells: 181
    Number of basis function: 435
    Number of Cartesian functions: 467
    Spherical Harmonics?: true
    Max angular momentum: 2

  ==> CGRSolver (by Rob Parrish) <==

   Number of roots    =         1
   Preconditioning    =    JACOBI
   Convergence cutoff =     1E-06
   Maximum iterations =       100

  ==> CPHFRHamiltonian (by Rob Parrish) <== 

  ==> MemDFJK: Density-Fitted J/K Matrices <==

    J tasked:                   Yes
    K tasked:                   Yes
    wK tasked:                   No
    OpenMP threads:               8
    Memory [MiB]:             11444
    Algorithm:                 Disk
    Schwarz Cutoff:           1E-12
    Mask sparsity (%):       7.8541
    Fitting Condition:        1E-10

   => Auxiliary Basis Set <=

  Basis Set: (AUG-CC-PVDZ AUX)
    Blend: AUG-CC-PVDZ-JKFIT
    Number of shells: 544
    Number of basis function: 1642
    Number of Cartesian functions: 1910
    Spherical Harmonics?: true
    Max angular momentum: 3

  ==> CPHF Iterations <==

  => Iterations <=

             Iter  Converged  Remaining    Residual
  CGR           1          0          1   1.725E-01
  CGR           2          0          1   5.718E-02
  CGR           3          0          1   3.460E-02
  CGR           4          0          1   1.168E-02
  CGR           5          0          1   6.560E-03
  CGR           6          0          1   2.246E-03
  CGR           7          0          1   8.905E-04
  CGR           8          0          1   2.444E-04
  CGR           9          0          1   1.079E-04
  CGR          10          0          1   4.580E-05
  CGR          11          0          1   1.866E-05
  CGR          12          0          1   9.414E-06
  CGR          13          0          1   3.674E-06
  CGR          14          0          1   1.626E-06
  CGR          15          1          0   6.649E-07

    CGRSolver converged.

	-----------------------------------------------------------
	 ==================> DF-MP2 Energies <==================== 
	-----------------------------------------------------------
	 Reference Energy          =   -1183.4425310924088990 [Eh]
	 Singles Energy            =      -0.0000000000000000 [Eh]
	 Same-Spin Energy          =      -0.6739258403276003 [Eh]
	 Opposite-Spin Energy      =      -1.7743527925085476 [Eh]
	 Correlation Energy        =      -2.4482786328361481 [Eh]
	 Total Energy              =   -1185.8908097252449352 [Eh]
	-----------------------------------------------------------
	 ================> DF-SCS-MP2 Energies <================== 
	-----------------------------------------------------------
	 SCS Same-Spin Scale       =       0.3333333333333333 [-]
	 SCS Opposite-Spin Scale   =       1.2000000000000000 [-]
	 SCS Same-Spin Energy      =      -0.2246419467758667 [Eh]
	 SCS Opposite-Spin Energy  =      -2.1292233510102569 [Eh]
	 SCS Correlation Energy    =      -2.3538652977861236 [Eh]
	 SCS Total Energy          =   -1185.7963963901950137 [Eh]
	-----------------------------------------------------------



Properties will be evaluated at  -0.000000,   0.000000,  -0.000000 [a0]

Properties computed using the MP2 density matrix

  Nuclear Dipole Moment: [e a0]
     X:    25.0017      Y:    -0.4067      Z:    -5.5312

  Electronic Dipole Moment: [e a0]
     X:   -22.0970      Y:     0.0320      Z:     5.0537

  Dipole Moment: [e a0]
     X:     2.9047      Y:    -0.3747      Z:    -0.4775     Total:     2.9674

  Dipole Moment: [D]
     X:     7.3830      Y:    -0.9524      Z:    -1.2137     Total:     7.5425


*** tstop() called on cpu-spot-dy-c5n2xlarge-1 at Mon Jun 21 21:52:44 2021
Module time:
	user time   =     365.01 seconds =       6.08 minutes
	system time =      42.82 seconds =       0.71 minutes
	total time  =         82 seconds =       1.37 minutes
Total time:
	user time   =     551.31 seconds =       9.19 minutes
	system time =      78.21 seconds =       1.30 minutes
	total time  =        131 seconds =       2.18 minutes
  ==> One Electron Grid Properties (v2.0) <==

  ==> CubicScalarGrid <==

    Filepath     = .
    Total Points =           911250
    XYZ Blocking =               10
    X Points     =              135
    Y Points     =               90
    Z Points     =               75
    X Spacing    =        2.000E-01
    Y Spacing    =        2.000E-01
    Z Spacing    =        2.000E-01
    X Minimum    =       -1.119E+01
    Y Minimum    =       -8.736E+00
    Z Minimum    =       -7.014E+00
    X Maximum    =        1.561E+01
    Y Maximum    =        9.064E+00
    Z Maximum    =        7.786E+00

  Basis Set: AUG-CC-PVDZ
    Blend: AUG-CC-PVDZ
    Number of shells: 181
    Number of basis function: 435
    Number of Cartesian functions: 467
    Spherical Harmonics?: true
    Max angular momentum: 2



Properties will be evaluated at  -0.000000,   0.000000,  -0.000000 [a0]
OEProp: No title given, name of density matrix used for the following properties is 'DF-MP2 relaxed density'
  Mulliken Charges: (a.u.)
   Center  Symbol    Alpha    Beta     Spin     Total
       1     N     3.64894  3.64894  0.00000 -0.29789
       2     C     2.86164  2.86164  0.00000  0.27671
       3     C     2.12145  2.12145  0.00000  1.75710
       4     F     4.81521  4.81521  0.00000 -0.63041
       5     F     4.79932  4.79932  0.00000 -0.59863
       6     C     3.17419  3.17419  0.00000 -0.34837
       7     C     2.30153  2.30153  0.00000  1.39694
       8     C     2.68667  2.68667  0.00000  0.62665
       9     C     2.75210  2.75210  0.00000  0.49580
      10     C     2.80968  2.80968  0.00000  0.38064
      11     C     2.63075  2.63075  0.00000  0.73850
      12     C     3.18248  3.18248  0.00000 -0.36495
      13     S     7.91346  7.91346  0.00000  0.17308
      14     C     2.87935  2.87935  0.00000  0.24130
      15     O     4.29993  4.29993  0.00000 -0.59986
      16     O     4.29716  4.29716  0.00000 -0.59432
      17     H     0.90832  0.90832  0.00000 -0.81665
      18     H     0.85794  0.85794  0.00000 -0.71587
      19     H     0.55264  0.55264  0.00000 -0.10529
      20     H     0.86314  0.86314  0.00000 -0.72627
      21     H     0.50308  0.50308  0.00000 -0.00616
      22     H     0.50677  0.50677  0.00000 -0.01354
      23     H     0.63426  0.63426  0.00000 -0.26852

   Total alpha = 62.00000, Total beta = 62.00000, Total charge = -0.00000



  Wiberg Bond Indices using Orthogonal Lowdin Orbitals:

  Irrep: 1 Size: 23 x 23

                 1                   2                   3                   4                   5

    1     0.00000000000000     1.43840070684884     0.20933037389729     0.02092049002010     0.03322330642868
    2     1.43840070684884     0.00000000000000     0.90692356327727     0.18448593662949     0.19807299831177
    3     0.20933037389729     0.90692356327727     0.00000000000000     1.68728814659900     1.56399600727327
    4     0.02092049002010     0.18448593662949     1.68728814659900     0.00000000000000     0.16134594282564
    5     0.03322330642868     0.19807299831177     1.56399600727327     0.16134594282564     0.00000000000000
    6     0.05723078934645     0.15729953345463     0.92586945604335     0.18047340825946     0.20082802163072
    7     0.22588553483498     0.05749429083535     0.20075115318611     0.02068849056348     0.03743314536402
    8     0.03200793242789     0.00812586668513     0.02540728721886     0.00346396286745     0.00506422225597
    9     0.01706670877247     0.00468518990586     0.00432988208000     0.00078524506495     0.00102070410930
   10     0.03502567532287     0.00569333223316     0.00237489205990     0.00023002942768     0.00107835056623
   11     0.25847759137580     0.03015912688563     0.00808018865675     0.00055366848088     0.00242087181814
   12     1.29718519686037     0.23179888895609     0.06872005098859     0.00591636544476     0.01789457954699
   13     0.00396605242705     0.00114615597588     0.00076565025869     0.00009461358458     0.00058797698589
   14     0.00097877999640     0.00027469788128     0.00018176581893     0.00003239713204     0.00009440881068
   15     0.33867280814433     2.55600888786761     0.25979230384132     0.05291904050412     0.03060954377073
   16     0.00734146627783     0.02642835473336     0.27076728387568     0.05472481954375     0.03355253607848
   17     0.00185499051742     0.00058468284941     0.00066362355715     0.00013921344212     0.00011237061185
   18     0.00249014994965     0.00102552857227     0.00369321780455     0.00059884209517     0.00062772894786
   19     0.89078221647797     0.18998898152294     0.01871152286752     0.00285084599219     0.00268758631104
   20     0.03573789099409     0.00427042062658     0.00117975431004     0.00019864445059     0.00024650105786
   21     0.00014349459331     0.00005169428384     0.00005323120602     0.00000922870230     0.00002103461010
   22     0.00017693880573     0.00006230863076     0.00005539454487     0.00000969795731     0.00002032360310
   23     0.00016083782184     0.00003889459769     0.00002654840915     0.00000435094799     0.00000677747240

                 6                   7                   8                   9                  10

    1     0.05723078934645     0.22588553483498     0.03200793242789     0.01706670877247     0.03502567532287
    2     0.15729953345463     0.05749429083535     0.00812586668513     0.00468518990586     0.00569333223316
    3     0.92586945604335     0.20075115318611     0.02540728721886     0.00432988208000     0.00237489205990
    4     0.18047340825946     0.02068849056348     0.00346396286745     0.00078524506495     0.00023002942768
    5     0.20082802163072     0.03743314536402     0.00506422225597     0.00102070410930     0.00107835056623
    6     0.00000000000000     1.06041728263459     0.26637487083586     0.03847427741298     0.01743911117619
    7     1.06041728263459     0.00000000000000     1.30292534926352     0.33368940564159     0.12353941368619
    8     0.26637487083586     1.30292534926352     0.00000000000000     1.42323221937592     0.34449256944979
    9     0.03847427741298     0.33368940564159     1.42323221937592     0.00000000000000     1.36229674820904
   10     0.01743911117619     0.12353941368619     0.34449256944979     1.36229674820904     0.00000000000000
   11     0.03111599726532     0.29071065987954     0.12832076270684     0.32252452072390     1.38669998445278
   12     0.24447933657425     1.19842428376260     0.29793223253477     0.12097487146517     0.33461289026269
   13     0.00717987070520     0.02179028113234     0.03511088326920     0.22854934543974     1.53007499082713
   14     0.00115874491221     0.00386798620391     0.01046977191919     0.08026606599496     0.24919278762060
   15     0.02580454919382     0.00997489998968     0.00211282824681     0.00299788552147     0.00338344507562
   16     2.53245247000153     0.29488439826848     0.07554353329522     0.01150377256962     0.01028564196144
   17     0.00276393108034     0.02559370720720     0.20924445741824     0.78871943412878     0.19661279546040
   18     0.04121283109086     0.19573974396829     0.77898130981989     0.20233390214133     0.02465082743933
   19     0.00538930402300     0.01792168804414     0.00323227967297     0.00192436520724     0.00488314179308
   20     0.00247386074740     0.02302573478773     0.01045763314778     0.02545260420015     0.20292947099901
   21     0.00021316010387     0.00070180229266     0.00272237192362     0.02247787500257     0.02284531381541
   22     0.00023038871573     0.00076528812164     0.00291738290978     0.02343142150315     0.02476382824974
   23     0.00007618488248     0.00032989217430     0.00070936245427     0.00822113055779     0.02268132047976

                11                  12                  13                  14                  15

    1     0.25847759137580     1.29718519686037     0.00396605242705     0.00097877999640     0.33867280814433
    2     0.03015912688563     0.23179888895609     0.00114615597588     0.00027469788128     2.55600888786761
    3     0.00808018865675     0.06872005098859     0.00076565025869     0.00018176581893     0.25979230384132
    4     0.00055366848088     0.00591636544476     0.00009461358458     0.00003239713204     0.05291904050412
    5     0.00242087181814     0.01789457954699     0.00058797698589     0.00009440881068     0.03060954377073
    6     0.03111599726532     0.24447933657425     0.00717987070520     0.00115874491221     0.02580454919382
    7     0.29071065987954     1.19842428376260     0.02179028113234     0.00386798620391     0.00997489998968
    8     0.12832076270684     0.29793223253477     0.03511088326920     0.01046977191919     0.00211282824681
    9     0.32252452072390     0.12097487146517     0.22854934543974     0.08026606599496     0.00299788552147
   10     1.38669998445278     0.33461289026269     1.53007499082713     0.24919278762060     0.00338344507562
   11     0.00000000000000     1.32312535212968     0.29034903253036     0.03497618913881     0.01103379904547
   12     1.32312535212968     0.00000000000000     0.03696198810471     0.00613208050595     0.03991132925014
   13     0.29034903253036     0.03696198810471     0.00000000000000     1.46011438281005     0.00071557842677
   14     0.03497618913881     0.00613208050595     1.46011438281005     0.00000000000000     0.00019547133536
   15     0.01103379904547     0.03991132925014     0.00071557842677     0.00019547133536     0.00000000000000
   16     0.00909018842849     0.03841360268039     0.00587024994389     0.00082112204225     0.00806140670443
   17     0.02423477522061     0.00943382716505     0.02892118586089     0.05245695165865     0.00041936002696
   18     0.01001818407049     0.02293457569434     0.00337819194801     0.00098128854971     0.00033587200662
   19     0.03875686283344     0.16341444480516     0.00079977073490     0.00013253907552     0.04905771772948
   20     0.78175751264144     0.20073100106507     0.04911732703055     0.00540185618566     0.00116937585054
   21     0.00303744471504     0.00075286555450     0.15808201523634     0.90949952757833     0.00003527982450
   22     0.00326718417722     0.00083661200149     0.15803870015433     0.90685918352507     0.00004005811217
   23     0.00314778866796     0.00076784078869     0.17538020795572     0.92599260616916     0.00001982655135

                16                  17                  18                  19                  20

    1     0.00734146627783     0.00185499051742     0.00249014994965     0.89078221647797     0.03573789099409
    2     0.02642835473336     0.00058468284941     0.00102552857227     0.18998898152294     0.00427042062658
    3     0.27076728387568     0.00066362355715     0.00369321780455     0.01871152286752     0.00117975431004
    4     0.05472481954375     0.00013921344212     0.00059884209517     0.00285084599219     0.00019864445059
    5     0.03355253607848     0.00011237061185     0.00062772894786     0.00268758631104     0.00024650105786
    6     2.53245247000153     0.00276393108034     0.04121283109086     0.00538930402300     0.00247386074740
    7     0.29488439826848     0.02559370720720     0.19573974396829     0.01792168804414     0.02302573478773
    8     0.07554353329522     0.20924445741824     0.77898130981989     0.00323227967297     0.01045763314778
    9     0.01150377256962     0.78871943412878     0.20233390214133     0.00192436520724     0.02545260420015
   10     0.01028564196144     0.19661279546040     0.02465082743933     0.00488314179308     0.20292947099901
   11     0.00909018842849     0.02423477522061     0.01001818407049     0.03875686283344     0.78175751264144
   12     0.03841360268039     0.00943382716505     0.02293457569434     0.16341444480516     0.20073100106507
   13     0.00587024994389     0.02892118586089     0.00337819194801     0.00079977073490     0.04911732703055
   14     0.00082112204225     0.05245695165865     0.00098128854971     0.00013253907552     0.00540185618566
   15     0.00806140670443     0.00041936002696     0.00033587200662     0.04905771772948     0.00116937585054
   16     0.00000000000000     0.00067171016983     0.03638022739827     0.00062900621760     0.00097833006736
   17     0.00067171016983     0.00000000000000     0.02395289132329     0.00027537108692     0.00189426780346
   18     0.03638022739827     0.02395289132329     0.00000000000000     0.00073273641793     0.00116046489806
   19     0.00062900621760     0.00027537108692     0.00073273641793     0.00000000000000     0.01428876376702
   20     0.00097833006736     0.00189426780346     0.00116046489806     0.01428876376702     0.00000000000000
   21     0.00013191856675     0.02056067333260     0.00027843567626     0.00004295733806     0.00063151807701
   22     0.00014045016446     0.01876774184426     0.00029574262432     0.00004525155654     0.00061474067431
   23     0.00003094368769     0.00569802472857     0.00010246799447     0.00002692142414     0.00053739821599

                21                  22                  23

    1     0.00014349459331     0.00017693880573     0.00016083782184
    2     0.00005169428384     0.00006230863076     0.00003889459769
    3     0.00005323120602     0.00005539454487     0.00002654840915
    4     0.00000922870230     0.00000969795731     0.00000435094799
    5     0.00002103461010     0.00002032360310     0.00000677747240
    6     0.00021316010387     0.00023038871573     0.00007618488248
    7     0.00070180229266     0.00076528812164     0.00032989217430
    8     0.00272237192362     0.00291738290978     0.00070936245427
    9     0.02247787500257     0.02343142150315     0.00822113055779
   10     0.02284531381541     0.02476382824974     0.02268132047976
   11     0.00303744471504     0.00326718417722     0.00314778866796
   12     0.00075286555450     0.00083661200149     0.00076784078869
   13     0.15808201523634     0.15803870015433     0.17538020795572
   14     0.90949952757833     0.90685918352507     0.92599260616916
   15     0.00003527982450     0.00004005811217     0.00001982655135
   16     0.00013191856675     0.00014045016446     0.00003094368769
   17     0.02056067333260     0.01876774184426     0.00569802472857
   18     0.00027843567626     0.00029574262432     0.00010246799447
   19     0.00004295733806     0.00004525155654     0.00002692142414
   20     0.00063151807701     0.00061474067431     0.00053739821599
   21     0.00000000000000     0.15678968011373     0.16217773171491
   22     0.15678968011373     0.00000000000000     0.16156140119927
   23     0.16217773171491     0.16156140119927     0.00000000000000



  Atomic Valences: 

 #  #
 Irrep: 1
      1:  4.9070599
      2:  6.0030200
      3:  6.1589613
      4:  2.3777334
      5:  2.2909449
      6:  5.7989574
      7:  5.4465544
      8:  4.9688491
      9:  5.0249576
     10:  5.9057866
     11:  4.9918577
     12:  5.6613542
     13:  4.1969945
     14:  4.6500806
     15:  3.3932713
     16:  3.4187034
     17:  1.4135760
     18:  1.3519052
     19:  1.4065743
     20:  1.3642551
     21:  1.4612593
     22:  1.4596897
     23:  1.4676985


 Electrostatic potential computed on the grid and written to grid_esp.dat

    Psi4 stopped on: Monday, 21 June 2021 10:04PM
    Psi4 wall time for execution: 0:14:17.14

*** Psi4 exiting successfully. Buy a developer a beer!
