Generated by Psi4
        SP                        DF-MP2                      6-311G**
Number of atoms                            I               23
Charge                                     I                0
Multiplicity                               I                1
Number of electrons                        I              124
Number of alpha electrons                  I               62
Number of beta electrons                   I               62
Number of basis functions                  I              338
Number of independent functions            I              338
Atomic numbers                             I   N=          23
           7           6           6           9           9           6
           6           6           6           6           6           6
          16           6           8           8           1           1
           1           1           1           1           1
Nuclear charges                            R   N=          23
  7.00000000e+00  6.00000000e+00  6.00000000e+00  9.00000000e+00  9.00000000e+00
  6.00000000e+00  6.00000000e+00  6.00000000e+00  6.00000000e+00  6.00000000e+00
  6.00000000e+00  6.00000000e+00  1.60000000e+01  6.00000000e+00  8.00000000e+00
  8.00000000e+00  1.00000000e+00  1.00000000e+00  1.00000000e+00  1.00000000e+00
  1.00000000e+00  1.00000000e+00  1.00000000e+00
Current cartesian coordinates              R   N=          69
 -2.06777192e+00 -2.81084354e+00  8.45353639e-02 -4.52356269e+00 -2.04976777e+00
  4.14043819e-01 -4.76005532e+00  7.44383655e-01  1.16165545e+00 -7.14185814e+00
  1.55418248e+00  7.78243620e-01 -4.25956682e+00  8.38830954e-01  3.74367771e+00
 -2.82418427e+00  2.52651211e+00 -6.61771037e-02 -2.80864038e-01  1.43895929e+00
 -2.46937076e-01  1.82565302e+00  2.97447270e+00 -6.79983071e-01  4.22531547e+00
  1.93925246e+00 -9.29800840e-01  4.54037139e+00 -6.97379461e-01 -8.54423557e-01
  2.42922478e+00 -2.24538966e+00 -4.41521413e-01  2.36533973e-02 -1.20366550e+00
 -2.24278095e-01  7.45999016e+00 -2.25855117e+00 -1.14036072e+00  9.68659484e+00
  3.21684057e-01 -1.27146028e+00 -6.34698772e+00 -3.46916300e+00  2.76734859e-01
 -3.41328525e+00  4.68637316e+00 -6.73763475e-01  5.81784433e+00  3.18793113e+00
 -1.25483744e+00  1.54982891e+00  5.01067745e+00 -7.43292296e-01 -1.85051867e+00
 -4.68221538e+00 -3.01546753e-01  2.66373786e+00 -4.29088392e+00 -3.74175936e-01
  9.44831027e+00  1.46491072e+00 -2.97210802e+00  9.57716558e+00  1.50367813e+00
  4.15254469e-01  1.15520148e+01 -5.57246884e-01 -1.33424365e+00
Integer atomic weights                     I   N=          23
          14          12          12          18          18          12
          12          12          12          12          12          12
          31          12          15          15           1           1
           1           1           1           1           1
Real atomic weights                        R   N=          23
  1.40030740e+01  1.20000000e+01  1.20000000e+01  1.89984032e+01  1.89984032e+01
  1.20000000e+01  1.20000000e+01  1.20000000e+01  1.20000000e+01  1.20000000e+01
  1.20000000e+01  1.20000000e+01  3.19720712e+01  1.20000000e+01  1.59949146e+01
  1.59949146e+01  1.00782503e+00  1.00782503e+00  1.00782503e+00  1.00782503e+00
  1.00782503e+00  1.00782503e+00  1.00782503e+00
Number of primitive shells                 I              320
Number of contracted shells                I              160
Pure/Cartesian d shells                    I                0
Pure/Cartesian f shells                    I                0
Highest angular momentum                   I                2
Largest degree of contraction              I                6
Shell types                                I   N=         160
           0           0           1           0           1           0
           1          -2           0           0           1           0
           1           0           1          -2           0           0
           1           0           1           0           1          -2
           0           0           1           0           1           0
           1          -2           0           0           1           0
           1           0           1          -2           0           0
           1           0           1           0           1          -2
           0           0           1           0           1           0
           1          -2           0           0           1           0
           1           0           1          -2           0           0
           1           0           1           0           1          -2
           0           0           1           0           1           0
           1          -2           0           0           1           0
           1           0           1          -2           0           0
           1           0           1           0           1          -2
           0           0           0           0           0           0
           1           1           1           1           1          -2
           0           0           1           0           1           0
           1          -2           0           0           1           0
           1           0           1          -2           0           0
           1           0           1           0           1          -2
           0           0           0           1           0           0
           0           1           0           0           0           1
           0           0           0           1           0           0
           0           1           0           0           0           1
           0           0           0           1
Number of primitives per shell             I   N=         160
           6           3           3           1           1           1
           1           1           6           3           3           1
           1           1           1           1           6           3
           3           1           1           1           1           1
           6           3           3           1           1           1
           1           1           6           3           3           1
           1           1           1           1           6           3
           3           1           1           1           1           1
           6           3           3           1           1           1
           1           1           6           3           3           1
           1           1           1           1           6           3
           3           1           1           1           1           1
           6           3           3           1           1           1
           1           1           6           3           3           1
           1           1           1           1           6           3
           3           1           1           1           1           1
           6           3           1           1           1           1
           4           2           1           1           1           1
           6           3           3           1           1           1
           1           1           6           3           3           1
           1           1           1           1           6           3
           3           1           1           1           1           1
           3           1           1           1           3           1
           1           1           3           1           1           1
           3           1           1           1           3           1
           1           1           3           1           1           1
           3           1           1           1
Shell to atom map                          I   N=         160
           1           1           1           1           1           1
           1           1           2           2           2           2
           2           2           2           2           3           3
           3           3           3           3           3           3
           4           4           4           4           4           4
           4           4           5           5           5           5
           5           5           5           5           6           6
           6           6           6           6           6           6
           7           7           7           7           7           7
           7           7           8           8           8           8
           8           8           8           8           9           9
           9           9           9           9           9           9
          10          10          10          10          10          10
          10          10          11          11          11          11
          11          11          11          11          12          12
          12          12          12          12          12          12
          13          13          13          13          13          13
          13          13          13          13          13          13
          14          14          14          14          14          14
          14          14          15          15          15          15
          15          15          15          15          16          16
          16          16          16          16          16          16
          17          17          17          17          18          18
          18          18          19          19          19          19
          20          20          20          20          21          21
          21          21          22          22          22          22
          23          23          23          23
Primitive exponents                        R   N=         320
  6.29348000e+03  9.49044000e+02  2.18776000e+02  6.36916000e+01  1.88282000e+01
  2.72023000e+00  3.06331000e+01  7.02614000e+00  2.11205000e+00  3.06331000e+01
  7.02614000e+00  2.11205000e+00  6.84009000e-01  6.84009000e-01  2.00878000e-01
  2.00878000e-01  9.13000000e-01  4.56324000e+03  6.82024000e+02  1.54973000e+02
  4.44553000e+01  1.30290000e+01  1.82773000e+00  2.09642000e+01  4.80331000e+00
  1.45933000e+00  2.09642000e+01  4.80331000e+00  1.45933000e+00  4.83456000e-01
  4.83456000e-01  1.45585000e-01  1.45585000e-01  6.26000000e-01  4.56324000e+03
  6.82024000e+02  1.54973000e+02  4.44553000e+01  1.30290000e+01  1.82773000e+00
  2.09642000e+01  4.80331000e+00  1.45933000e+00  2.09642000e+01  4.80331000e+00
  1.45933000e+00  4.83456000e-01  4.83456000e-01  1.45585000e-01  1.45585000e-01
  6.26000000e-01  1.14271000e+04  1.72235000e+03  3.95746000e+02  1.15139000e+02
  3.36026000e+01  4.91901000e+00  5.54441000e+01  1.26323000e+01  3.71756000e+00
  5.54441000e+01  1.26323000e+01  3.71756000e+00  1.16545000e+00  1.16545000e+00
  3.21892000e-01  3.21892000e-01  1.75000000e+00  1.14271000e+04  1.72235000e+03
  3.95746000e+02  1.15139000e+02  3.36026000e+01  4.91901000e+00  5.54441000e+01
  1.26323000e+01  3.71756000e+00  5.54441000e+01  1.26323000e+01  3.71756000e+00
  1.16545000e+00  1.16545000e+00  3.21892000e-01  3.21892000e-01  1.75000000e+00
  4.56324000e+03  6.82024000e+02  1.54973000e+02  4.44553000e+01  1.30290000e+01
  1.82773000e+00  2.09642000e+01  4.80331000e+00  1.45933000e+00  2.09642000e+01
  4.80331000e+00  1.45933000e+00  4.83456000e-01  4.83456000e-01  1.45585000e-01
  1.45585000e-01  6.26000000e-01  4.56324000e+03  6.82024000e+02  1.54973000e+02
  4.44553000e+01  1.30290000e+01  1.82773000e+00  2.09642000e+01  4.80331000e+00
  1.45933000e+00  2.09642000e+01  4.80331000e+00  1.45933000e+00  4.83456000e-01
  4.83456000e-01  1.45585000e-01  1.45585000e-01  6.26000000e-01  4.56324000e+03
  6.82024000e+02  1.54973000e+02  4.44553000e+01  1.30290000e+01  1.82773000e+00
  2.09642000e+01  4.80331000e+00  1.45933000e+00  2.09642000e+01  4.80331000e+00
  1.45933000e+00  4.83456000e-01  4.83456000e-01  1.45585000e-01  1.45585000e-01
  6.26000000e-01  4.56324000e+03  6.82024000e+02  1.54973000e+02  4.44553000e+01
  1.30290000e+01  1.82773000e+00  2.09642000e+01  4.80331000e+00  1.45933000e+00
  2.09642000e+01  4.80331000e+00  1.45933000e+00  4.83456000e-01  4.83456000e-01
  1.45585000e-01  1.45585000e-01  6.26000000e-01  4.56324000e+03  6.82024000e+02
  1.54973000e+02  4.44553000e+01  1.30290000e+01  1.82773000e+00  2.09642000e+01
  4.80331000e+00  1.45933000e+00  2.09642000e+01  4.80331000e+00  1.45933000e+00
  4.83456000e-01  4.83456000e-01  1.45585000e-01  1.45585000e-01  6.26000000e-01
  4.56324000e+03  6.82024000e+02  1.54973000e+02  4.44553000e+01  1.30290000e+01
  1.82773000e+00  2.09642000e+01  4.80331000e+00  1.45933000e+00  2.09642000e+01
  4.80331000e+00  1.45933000e+00  4.83456000e-01  4.83456000e-01  1.45585000e-01
  1.45585000e-01  6.26000000e-01  4.56324000e+03  6.82024000e+02  1.54973000e+02
  4.44553000e+01  1.30290000e+01  1.82773000e+00  2.09642000e+01  4.80331000e+00
  1.45933000e+00  2.09642000e+01  4.80331000e+00  1.45933000e+00  4.83456000e-01
  4.83456000e-01  1.45585000e-01  1.45585000e-01  6.26000000e-01  9.34134000e+04
  1.39617000e+04  3.16991000e+03  9.02456000e+02  2.97158000e+02  1.08702000e+02
  1.08702000e+02  4.31553000e+01  1.81079000e+01  5.56009000e+00  2.13183000e+00
  4.20403000e-01  1.36045000e-01  4.95040000e+02  1.17221000e+02  3.77749000e+01
  1.40584000e+01  5.56574000e+00  2.26297000e+00  8.07994000e-01  2.77460000e-01
  7.71410000e-02  6.50000000e-01  4.56324000e+03  6.82024000e+02  1.54973000e+02
  4.44553000e+01  1.30290000e+01  1.82773000e+00  2.09642000e+01  4.80331000e+00
  1.45933000e+00  2.09642000e+01  4.80331000e+00  1.45933000e+00  4.83456000e-01
  4.83456000e-01  1.45585000e-01  1.45585000e-01  6.26000000e-01  8.58850000e+03
  1.29723000e+03  2.99296000e+02  8.73771000e+01  2.56789000e+01  3.74004000e+00
  4.21175000e+01  9.62837000e+00  2.85332000e+00  4.21175000e+01  9.62837000e+00
  2.85332000e+00  9.05661000e-01  9.05661000e-01  2.55611000e-01  2.55611000e-01
  1.29200000e+00  8.58850000e+03  1.29723000e+03  2.99296000e+02  8.73771000e+01
  2.56789000e+01  3.74004000e+00  4.21175000e+01  9.62837000e+00  2.85332000e+00
  4.21175000e+01  9.62837000e+00  2.85332000e+00  9.05661000e-01  9.05661000e-01
  2.55611000e-01  2.55611000e-01  1.29200000e+00  3.38650000e+01  5.09479000e+00
  1.15879000e+00  3.25840000e-01  1.02741000e-01  7.50000000e-01  3.38650000e+01
  5.09479000e+00  1.15879000e+00  3.25840000e-01  1.02741000e-01  7.50000000e-01
  3.38650000e+01  5.09479000e+00  1.15879000e+00  3.25840000e-01  1.02741000e-01
  7.50000000e-01  3.38650000e+01  5.09479000e+00  1.15879000e+00  3.25840000e-01
  1.02741000e-01  7.50000000e-01  3.38650000e+01  5.09479000e+00  1.15879000e+00
  3.25840000e-01  1.02741000e-01  7.50000000e-01  3.38650000e+01  5.09479000e+00
  1.15879000e+00  3.25840000e-01  1.02741000e-01  7.50000000e-01  3.38650000e+01
  5.09479000e+00  1.15879000e+00  3.25840000e-01  1.02741000e-01  7.50000000e-01
Contraction coefficients                   R   N=         320
  1.96978815e-03  1.49612859e-02  7.35005308e-02  2.48936766e-01  6.02459433e-01
  2.56201759e-01  1.11906080e-01  9.21666655e-01 -2.56919183e-03  3.83119186e-02
  2.37403116e-01  8.17592398e-01  1.00000000e+00  1.00000000e+00  1.00000000e+00
  1.00000000e+00  1.00000000e+00  1.96665025e-03  1.52306019e-02  7.61269097e-02
  2.60801033e-01  6.16462078e-01  2.21006028e-01  1.14660081e-01  9.19999648e-01
 -3.03068213e-03  4.02486927e-02  2.37593957e-01  8.15853851e-01  1.00000000e+00
  1.00000000e+00  1.00000000e+00  1.00000000e+00  1.00000000e+00  1.96665025e-03
  1.52306019e-02  7.61269097e-02  2.60801033e-01  6.16462078e-01  2.21006028e-01
  1.14660081e-01  9.19999648e-01 -3.03068213e-03  4.02486927e-02  2.37593957e-01
  8.15853851e-01  1.00000000e+00  1.00000000e+00  1.00000000e+00  1.00000000e+00
  1.00000000e+00  1.80093016e-03  1.37419012e-02  6.81334059e-02  2.33325020e-01
  5.89086051e-01  2.99505026e-01  1.14536016e-01  9.20512125e-01 -3.37804046e-03
  3.54608874e-02  2.37450915e-01  8.20457708e-01  1.00000000e+00  1.00000000e+00
  1.00000000e+00  1.00000000e+00  1.00000000e+00  1.80093016e-03  1.37419012e-02
  6.81334059e-02  2.33325020e-01  5.89086051e-01  2.99505026e-01  1.14536016e-01
  9.20512125e-01 -3.37804046e-03  3.54608874e-02  2.37450915e-01  8.20457708e-01
  1.00000000e+00  1.00000000e+00  1.00000000e+00  1.00000000e+00  1.00000000e+00
  1.96665025e-03  1.52306019e-02  7.61269097e-02  2.60801033e-01  6.16462078e-01
  2.21006028e-01  1.14660081e-01  9.19999648e-01 -3.03068213e-03  4.02486927e-02
  2.37593957e-01  8.15853851e-01  1.00000000e+00  1.00000000e+00  1.00000000e+00
  1.00000000e+00  1.00000000e+00  1.96665025e-03  1.52306019e-02  7.61269097e-02
  2.60801033e-01  6.16462078e-01  2.21006028e-01  1.14660081e-01  9.19999648e-01
 -3.03068213e-03  4.02486927e-02  2.37593957e-01  8.15853851e-01  1.00000000e+00
  1.00000000e+00  1.00000000e+00  1.00000000e+00  1.00000000e+00  1.96665025e-03
  1.52306019e-02  7.61269097e-02  2.60801033e-01  6.16462078e-01  2.21006028e-01
  1.14660081e-01  9.19999648e-01 -3.03068213e-03  4.02486927e-02  2.37593957e-01
  8.15853851e-01  1.00000000e+00  1.00000000e+00  1.00000000e+00  1.00000000e+00
  1.00000000e+00  1.96665025e-03  1.52306019e-02  7.61269097e-02  2.60801033e-01
  6.16462078e-01  2.21006028e-01  1.14660081e-01  9.19999648e-01 -3.03068213e-03
  4.02486927e-02  2.37593957e-01  8.15853851e-01  1.00000000e+00  1.00000000e+00
  1.00000000e+00  1.00000000e+00  1.00000000e+00  1.96665025e-03  1.52306019e-02
  7.61269097e-02  2.60801033e-01  6.16462078e-01  2.21006028e-01  1.14660081e-01
  9.19999648e-01 -3.03068213e-03  4.02486927e-02  2.37593957e-01  8.15853851e-01
  1.00000000e+00  1.00000000e+00  1.00000000e+00  1.00000000e+00  1.00000000e+00
  1.96665025e-03  1.52306019e-02  7.61269097e-02  2.60801033e-01  6.16462078e-01
  2.21006028e-01  1.14660081e-01  9.19999648e-01 -3.03068213e-03  4.02486927e-02
  2.37593957e-01  8.15853851e-01  1.00000000e+00  1.00000000e+00  1.00000000e+00
  1.00000000e+00  1.00000000e+00  1.96665025e-03  1.52306019e-02  7.61269097e-02
  2.60801033e-01  6.16462078e-01  2.21006028e-01  1.14660081e-01  9.19999648e-01
 -3.03068213e-03  4.02486927e-02  2.37593957e-01  8.15853851e-01  1.00000000e+00
  1.00000000e+00  1.00000000e+00  1.00000000e+00  1.00000000e+00  7.42999957e-04
  5.79299966e-03  2.99539983e-02  1.19027993e-01  3.68431979e-01  5.77298966e-01
  1.43186060e-01  6.24465262e-01  2.83366119e-01  1.00000000e+00  1.00000000e+00
  1.00000000e+00  1.00000000e+00  8.30900251e-03  6.40240194e-02  2.77614084e-01
  7.45076225e-01  6.13711672e-01  4.43817763e-01  1.00000000e+00  1.00000000e+00
  1.00000000e+00  1.00000000e+00  1.96665025e-03  1.52306019e-02  7.61269097e-02
  2.60801033e-01  6.16462078e-01  2.21006028e-01  1.14660081e-01  9.19999648e-01
 -3.03068213e-03  4.02486927e-02  2.37593957e-01  8.15853851e-01  1.00000000e+00
  1.00000000e+00  1.00000000e+00  1.00000000e+00  1.00000000e+00  1.89515008e-03
  1.43859006e-02  7.07320031e-02  2.40001011e-01  5.94797026e-01  2.80802012e-01
  1.13889012e-01  9.20811101e-01 -3.27447036e-03  3.65113974e-02  2.37152983e-01
  8.19701941e-01  1.00000000e+00  1.00000000e+00  1.00000000e+00  1.00000000e+00
  1.00000000e+00  1.89515008e-03  1.43859006e-02  7.07320031e-02  2.40001011e-01
  5.94797026e-01  2.80802012e-01  1.13889012e-01  9.20811101e-01 -3.27447036e-03
  3.65113974e-02  2.37152983e-01  8.19701941e-01  1.00000000e+00  1.00000000e+00
  1.00000000e+00  1.00000000e+00  1.00000000e+00  2.54938145e-02  1.90373109e-01
  8.52161486e-01  1.00000000e+00  1.00000000e+00  1.00000000e+00  2.54938145e-02
  1.90373109e-01  8.52161486e-01  1.00000000e+00  1.00000000e+00  1.00000000e+00
  2.54938145e-02  1.90373109e-01  8.52161486e-01  1.00000000e+00  1.00000000e+00
  1.00000000e+00  2.54938145e-02  1.90373109e-01  8.52161486e-01  1.00000000e+00
  1.00000000e+00  1.00000000e+00  2.54938145e-02  1.90373109e-01  8.52161486e-01
  1.00000000e+00  1.00000000e+00  1.00000000e+00  2.54938145e-02  1.90373109e-01
  8.52161486e-01  1.00000000e+00  1.00000000e+00  1.00000000e+00  2.54938145e-02
  1.90373109e-01  8.52161486e-01  1.00000000e+00  1.00000000e+00  1.00000000e+00
Coordinates of each shell                  R   N=         480
 -2.06777192e+00 -2.81084354e+00  8.45353639e-02 -2.06777192e+00 -2.81084354e+00
  8.45353639e-02 -2.06777192e+00 -2.81084354e+00  8.45353639e-02 -2.06777192e+00
 -2.81084354e+00  8.45353639e-02 -2.06777192e+00 -2.81084354e+00  8.45353639e-02
 -2.06777192e+00 -2.81084354e+00  8.45353639e-02 -2.06777192e+00 -2.81084354e+00
  8.45353639e-02 -2.06777192e+00 -2.81084354e+00  8.45353639e-02 -4.52356269e+00
 -2.04976777e+00  4.14043819e-01 -4.52356269e+00 -2.04976777e+00  4.14043819e-01
 -4.52356269e+00 -2.04976777e+00  4.14043819e-01 -4.52356269e+00 -2.04976777e+00
  4.14043819e-01 -4.52356269e+00 -2.04976777e+00  4.14043819e-01 -4.52356269e+00
 -2.04976777e+00  4.14043819e-01 -4.52356269e+00 -2.04976777e+00  4.14043819e-01
 -4.52356269e+00 -2.04976777e+00  4.14043819e-01 -4.76005532e+00  7.44383655e-01
  1.16165545e+00 -4.76005532e+00  7.44383655e-01  1.16165545e+00 -4.76005532e+00
  7.44383655e-01  1.16165545e+00 -4.76005532e+00  7.44383655e-01  1.16165545e+00
 -4.76005532e+00  7.44383655e-01  1.16165545e+00 -4.76005532e+00  7.44383655e-01
  1.16165545e+00 -4.76005532e+00  7.44383655e-01  1.16165545e+00 -4.76005532e+00
  7.44383655e-01  1.16165545e+00 -7.14185814e+00  1.55418248e+00  7.78243620e-01
 -7.14185814e+00  1.55418248e+00  7.78243620e-01 -7.14185814e+00  1.55418248e+00
  7.78243620e-01 -7.14185814e+00  1.55418248e+00  7.78243620e-01 -7.14185814e+00
  1.55418248e+00  7.78243620e-01 -7.14185814e+00  1.55418248e+00  7.78243620e-01
 -7.14185814e+00  1.55418248e+00  7.78243620e-01 -7.14185814e+00  1.55418248e+00
  7.78243620e-01 -4.25956682e+00  8.38830954e-01  3.74367771e+00 -4.25956682e+00
  8.38830954e-01  3.74367771e+00 -4.25956682e+00  8.38830954e-01  3.74367771e+00
 -4.25956682e+00  8.38830954e-01  3.74367771e+00 -4.25956682e+00  8.38830954e-01
  3.74367771e+00 -4.25956682e+00  8.38830954e-01  3.74367771e+00 -4.25956682e+00
  8.38830954e-01  3.74367771e+00 -4.25956682e+00  8.38830954e-01  3.74367771e+00
 -2.82418427e+00  2.52651211e+00 -6.61771037e-02 -2.82418427e+00  2.52651211e+00
 -6.61771037e-02 -2.82418427e+00  2.52651211e+00 -6.61771037e-02 -2.82418427e+00
  2.52651211e+00 -6.61771037e-02 -2.82418427e+00  2.52651211e+00 -6.61771037e-02
 -2.82418427e+00  2.52651211e+00 -6.61771037e-02 -2.82418427e+00  2.52651211e+00
 -6.61771037e-02 -2.82418427e+00  2.52651211e+00 -6.61771037e-02 -2.80864038e-01
  1.43895929e+00 -2.46937076e-01 -2.80864038e-01  1.43895929e+00 -2.46937076e-01
 -2.80864038e-01  1.43895929e+00 -2.46937076e-01 -2.80864038e-01  1.43895929e+00
 -2.46937076e-01 -2.80864038e-01  1.43895929e+00 -2.46937076e-01 -2.80864038e-01
  1.43895929e+00 -2.46937076e-01 -2.80864038e-01  1.43895929e+00 -2.46937076e-01
 -2.80864038e-01  1.43895929e+00 -2.46937076e-01  1.82565302e+00  2.97447270e+00
 -6.79983071e-01  1.82565302e+00  2.97447270e+00 -6.79983071e-01  1.82565302e+00
  2.97447270e+00 -6.79983071e-01  1.82565302e+00  2.97447270e+00 -6.79983071e-01
  1.82565302e+00  2.97447270e+00 -6.79983071e-01  1.82565302e+00  2.97447270e+00
 -6.79983071e-01  1.82565302e+00  2.97447270e+00 -6.79983071e-01  1.82565302e+00
  2.97447270e+00 -6.79983071e-01  4.22531547e+00  1.93925246e+00 -9.29800840e-01
  4.22531547e+00  1.93925246e+00 -9.29800840e-01  4.22531547e+00  1.93925246e+00
 -9.29800840e-01  4.22531547e+00  1.93925246e+00 -9.29800840e-01  4.22531547e+00
  1.93925246e+00 -9.29800840e-01  4.22531547e+00  1.93925246e+00 -9.29800840e-01
  4.22531547e+00  1.93925246e+00 -9.29800840e-01  4.22531547e+00  1.93925246e+00
 -9.29800840e-01  4.54037139e+00 -6.97379461e-01 -8.54423557e-01  4.54037139e+00
 -6.97379461e-01 -8.54423557e-01  4.54037139e+00 -6.97379461e-01 -8.54423557e-01
  4.54037139e+00 -6.97379461e-01 -8.54423557e-01  4.54037139e+00 -6.97379461e-01
 -8.54423557e-01  4.54037139e+00 -6.97379461e-01 -8.54423557e-01  4.54037139e+00
 -6.97379461e-01 -8.54423557e-01  4.54037139e+00 -6.97379461e-01 -8.54423557e-01
  2.42922478e+00 -2.24538966e+00 -4.41521413e-01  2.42922478e+00 -2.24538966e+00
 -4.41521413e-01  2.42922478e+00 -2.24538966e+00 -4.41521413e-01  2.42922478e+00
 -2.24538966e+00 -4.41521413e-01  2.42922478e+00 -2.24538966e+00 -4.41521413e-01
  2.42922478e+00 -2.24538966e+00 -4.41521413e-01  2.42922478e+00 -2.24538966e+00
 -4.41521413e-01  2.42922478e+00 -2.24538966e+00 -4.41521413e-01  2.36533973e-02
 -1.20366550e+00 -2.24278095e-01  2.36533973e-02 -1.20366550e+00 -2.24278095e-01
  2.36533973e-02 -1.20366550e+00 -2.24278095e-01  2.36533973e-02 -1.20366550e+00
 -2.24278095e-01  2.36533973e-02 -1.20366550e+00 -2.24278095e-01  2.36533973e-02
 -1.20366550e+00 -2.24278095e-01  2.36533973e-02 -1.20366550e+00 -2.24278095e-01
  2.36533973e-02 -1.20366550e+00 -2.24278095e-01  7.45999016e+00 -2.25855117e+00
 -1.14036072e+00  7.45999016e+00 -2.25855117e+00 -1.14036072e+00  7.45999016e+00
 -2.25855117e+00 -1.14036072e+00  7.45999016e+00 -2.25855117e+00 -1.14036072e+00
  7.45999016e+00 -2.25855117e+00 -1.14036072e+00  7.45999016e+00 -2.25855117e+00
 -1.14036072e+00  7.45999016e+00 -2.25855117e+00 -1.14036072e+00  7.45999016e+00
 -2.25855117e+00 -1.14036072e+00  7.45999016e+00 -2.25855117e+00 -1.14036072e+00
  7.45999016e+00 -2.25855117e+00 -1.14036072e+00  7.45999016e+00 -2.25855117e+00
 -1.14036072e+00  7.45999016e+00 -2.25855117e+00 -1.14036072e+00  9.68659484e+00
  3.21684057e-01 -1.27146028e+00  9.68659484e+00  3.21684057e-01 -1.27146028e+00
  9.68659484e+00  3.21684057e-01 -1.27146028e+00  9.68659484e+00  3.21684057e-01
 -1.27146028e+00  9.68659484e+00  3.21684057e-01 -1.27146028e+00  9.68659484e+00
  3.21684057e-01 -1.27146028e+00  9.68659484e+00  3.21684057e-01 -1.27146028e+00
  9.68659484e+00  3.21684057e-01 -1.27146028e+00 -6.34698772e+00 -3.46916300e+00
  2.76734859e-01 -6.34698772e+00 -3.46916300e+00  2.76734859e-01 -6.34698772e+00
 -3.46916300e+00  2.76734859e-01 -6.34698772e+00 -3.46916300e+00  2.76734859e-01
 -6.34698772e+00 -3.46916300e+00  2.76734859e-01 -6.34698772e+00 -3.46916300e+00
  2.76734859e-01 -6.34698772e+00 -3.46916300e+00  2.76734859e-01 -6.34698772e+00
 -3.46916300e+00  2.76734859e-01 -3.41328525e+00  4.68637316e+00 -6.73763475e-01
 -3.41328525e+00  4.68637316e+00 -6.73763475e-01 -3.41328525e+00  4.68637316e+00
 -6.73763475e-01 -3.41328525e+00  4.68637316e+00 -6.73763475e-01 -3.41328525e+00
  4.68637316e+00 -6.73763475e-01 -3.41328525e+00  4.68637316e+00 -6.73763475e-01
 -3.41328525e+00  4.68637316e+00 -6.73763475e-01 -3.41328525e+00  4.68637316e+00
 -6.73763475e-01  5.81784433e+00  3.18793113e+00 -1.25483744e+00  5.81784433e+00
  3.18793113e+00 -1.25483744e+00  5.81784433e+00  3.18793113e+00 -1.25483744e+00
  5.81784433e+00  3.18793113e+00 -1.25483744e+00  1.54982891e+00  5.01067745e+00
 -7.43292296e-01  1.54982891e+00  5.01067745e+00 -7.43292296e-01  1.54982891e+00
  5.01067745e+00 -7.43292296e-01  1.54982891e+00  5.01067745e+00 -7.43292296e-01
 -1.85051867e+00 -4.68221538e+00 -3.01546753e-01 -1.85051867e+00 -4.68221538e+00
 -3.01546753e-01 -1.85051867e+00 -4.68221538e+00 -3.01546753e-01 -1.85051867e+00
 -4.68221538e+00 -3.01546753e-01  2.66373786e+00 -4.29088392e+00 -3.74175936e-01
  2.66373786e+00 -4.29088392e+00 -3.74175936e-01  2.66373786e+00 -4.29088392e+00
 -3.74175936e-01  2.66373786e+00 -4.29088392e+00 -3.74175936e-01  9.44831027e+00
  1.46491072e+00 -2.97210802e+00  9.44831027e+00  1.46491072e+00 -2.97210802e+00
  9.44831027e+00  1.46491072e+00 -2.97210802e+00  9.44831027e+00  1.46491072e+00
 -2.97210802e+00  9.57716558e+00  1.50367813e+00  4.15254469e-01  9.57716558e+00
  1.50367813e+00  4.15254469e-01  9.57716558e+00  1.50367813e+00  4.15254469e-01
  9.57716558e+00  1.50367813e+00  4.15254469e-01  1.15520148e+01 -5.57246884e-01
 -1.33424365e+00  1.15520148e+01 -5.57246884e-01 -1.33424365e+00  1.15520148e+01
 -5.57246884e-01 -1.33424365e+00  1.15520148e+01 -5.57246884e-01 -1.33424365e+00
Total Energy                               R     -1.185990498709556e+03
Alpha Orbital Energies                     R   N=         338
 -9.19913746e+01 -2.63301114e+01 -2.63279127e+01 -2.05817997e+01 -2.05694332e+01
 -1.56451660e+01 -1.14520828e+01 -1.14062284e+01 -1.13759509e+01 -1.13468633e+01
 -1.13234416e+01 -1.12892687e+01 -1.12864931e+01 -1.12750388e+01 -1.12732387e+01
 -1.12674597e+01 -8.99411448e+00 -6.67653601e+00 -6.67510491e+00 -6.67361449e+00
 -1.67989067e+00 -1.61811895e+00 -1.42527958e+00 -1.41291745e+00 -1.30880935e+00
 -1.19673227e+00 -1.11901382e+00 -1.07845951e+00 -1.05468031e+00 -1.03204410e+00
 -9.37014590e-01 -8.99958881e-01 -8.79309840e-01 -8.69359622e-01 -8.11789966e-01
 -7.93435525e-01 -7.80942364e-01 -7.45178342e-01 -7.36482050e-01 -6.94281858e-01
 -6.89698267e-01 -6.83302923e-01 -6.70356188e-01 -6.54543974e-01 -6.50895929e-01
 -6.40701533e-01 -6.39280208e-01 -6.28998535e-01 -6.22379348e-01 -6.02975350e-01
 -5.93338257e-01 -5.70721282e-01 -5.51512635e-01 -5.46223384e-01 -5.38011900e-01
 -4.85750884e-01 -4.83047303e-01 -4.79627337e-01 -4.50619424e-01 -4.26044992e-01
 -3.55898575e-01 -3.34424495e-01  3.04213534e-02  9.13800185e-02  1.23234508e-01
  1.34888483e-01  1.41239479e-01  1.52580116e-01  1.66953104e-01  1.77050553e-01
  1.87016037e-01  1.96145181e-01  2.04804391e-01  2.38973964e-01  2.41614264e-01
  2.82298142e-01  2.85463276e-01  3.05021811e-01  3.28332957e-01  3.41363239e-01
  3.59079434e-01  3.71154643e-01  3.81274859e-01  3.91609252e-01  4.10242138e-01
  4.13292968e-01  4.20361313e-01  4.25097908e-01  4.49646029e-01  4.63036365e-01
  4.78777263e-01  5.07540152e-01  5.25829147e-01  5.27140198e-01  5.40302403e-01
  5.59296946e-01  5.68584529e-01  5.69497247e-01  5.81169827e-01  5.83206763e-01
  5.95989590e-01  6.05835748e-01  6.27434132e-01  6.31501018e-01  6.34488238e-01
  6.41723398e-01  6.54950241e-01  6.67957659e-01  6.75279166e-01  6.96342140e-01