
    -----------------------------------------------------------------------
          Psi4: An Open-Source Ab Initio Electronic Structure Package
                               Psi4 1.3.2 release

                         Git: Rev {HEAD} ecbda83 


    R. M. Parrish, L. A. Burns, D. G. A. Smith, A. C. Simmonett,
    A. E. DePrince III, E. G. Hohenstein, U. Bozkaya, A. Yu. Sokolov,
    R. Di Remigio, R. M. Richard, J. F. Gonthier, A. M. James,
    H. R. McAlexander, A. Kumar, M. Saitow, X. Wang, B. P. Pritchard,
    P. Verma, H. F. Schaefer III, K. Patkowski, R. A. King, E. F. Valeev,
    F. A. Evangelista, J. M. Turney, T. D. Crawford, and C. D. Sherrill,
    J. Chem. Theory Comput. 13(7) pp 3185--3197 (2017).
    (doi: 10.1021/acs.jctc.7b00174)


                         Additional Contributions by
    P. Kraus, H. Kruse, M. H. Lechner, M. C. Schieber, R. A. Shaw,
    A. Alenaizan, R. Galvelis, Z. L. Glick, S. Lehtola, and J. P. Misiewicz

    -----------------------------------------------------------------------


    Psi4 started on: Tuesday, 22 June 2021 04:48PM

    Process ID: 26888
    Host:       cpu-spot-dy-c5n2xlarge-1
    PSIDATADIR: /fsx/users/francis/anaconda3/envs/poltype-dev/share/psi4
    Memory:     500.0 MiB
    Threads:    1
    
  ==> Input File <==

--------------------------------------------------------------------------
molecule { 
0 1
  N                 -0.9434020    -1.2946320    -0.0708730
  C                 -2.2086410    -1.0439180     0.3936770
  C                 -2.5064230     0.4442600     0.7696760
  F                 -3.7903720     0.7497380     0.3523190
  F                 -2.4836960     0.5330490     2.1429320
  C                 -1.5166830     1.5216170     0.2013870
  C                 -0.1964200     1.0409120    -0.2702800
  C                  0.7882390     1.9604880    -0.6925130
  C                  2.0449640     1.5210510    -1.1271190
  C                  2.3379690     0.1335820    -1.1724330
  C                  1.3372550    -0.7903110    -0.8016000
  C                  0.0734500    -0.3537710    -0.3679190
  S                  3.8924890    -0.5349890    -1.6856220
  C                  4.9258200    -0.3817870    -0.2070430
  O                 -3.0103620    -1.9559730     0.5455690
  O                 -1.8061590     2.7159920     0.2283820
  H                  2.7864760     2.2648640    -1.4172820
  H                  0.5494890     3.0238560    -0.6588960
  H                 -0.7909570    -2.2752920    -0.2609620
  H                  1.5516850    -1.8593380    -0.8390890
  H                  5.1500330     0.6747250    -0.0313260
  H                  4.3926260    -0.7947290     0.6550380
  H                  5.8560830    -0.9356900    -0.3635650
--
0 1
  O                 -2.7170410     0.4496690    -2.3153140
  H                 -3.6411950     0.4696830    -2.0558230
  H                 -2.5520000     1.2069950    -2.8789620
}
memory 16GB
set_num_threads(8)
psi4_io.set_default_path("/scratch/Psi4-ligand")
set maxiter 500
set freeze_core True
set PROPERTIES_ORIGIN ["COM"]
e_dim= energy('wb97x-d/aug-cc-pVDZ',bsse_type='cp')

psi4.print_out('CP Energy = %10.6f' % (e_dim))
clean()
--------------------------------------------------------------------------

  Memory set to  14.901 GiB by Python driver.
  Threads set to 8 by Python driver.


   ===> N-Body Interaction Abacus <===
        BSSE Treatment:                     cp
        Number of 1-body computations:     4
        Number of 2-body computations:     1

   ==> N-Body: Now computing 1-body complexes <==


       N-Body: Computing complex (1/4) with fragments (2,) in the basis of fragments (2,).


*** tstart() called on cpu-spot-dy-c5n2xlarge-1
*** at Tue Jun 22 16:48:30 2021

   => Loading Basis Set <=

    Name: AUG-CC-PVDZ
    Role: ORBITAL
    Keyword: BASIS
    atoms 1   entry O          line   250 file /fsx/users/francis/anaconda3/envs/poltype-dev/share/psi4/basis/aug-cc-pvdz.gbs 
    atoms 2-3 entry H          line    36 file /fsx/users/francis/anaconda3/envs/poltype-dev/share/psi4/basis/aug-cc-pvdz.gbs 


         ---------------------------------------------------------
                                   SCF
               by Justin Turney, Rob Parrish, Andy Simmonett
                          and Daniel G. A. Smith
                              RKS Reference
                        8 Threads,  15258 MiB Core
         ---------------------------------------------------------

  ==> Geometry <==

    Molecular point group: c1
    Full point group: C1

    Geometry (in Angstrom), charge = 0, multiplicity = 1:

       Center              X                  Y                   Z               Mass       
    ------------   -----------------  -----------------  -----------------  -----------------
         O           -2.509802547605     0.224019394518    -2.011377169212    15.994914619570
         H           -3.433956547605     0.244033394518    -1.751886169212     1.007825032230
         H           -2.344761547605     0.981345394518    -2.575025169212     1.007825032230

  Running in c1 symmetry.

  Rotational constants: A =     11.83859  B =      0.08720  C =      0.08678 [cm^-1]
  Rotational constants: A = 354912.05549  B =   2614.33366  C =   2601.55272 [MHz]
  Nuclear repulsion =    9.167680042183251

  Charge       = 0
  Multiplicity = 1
  Electrons    = 10
  Nalpha       = 5
  Nbeta        = 5

  ==> Algorithm <==

  SCF Algorithm Type is DF.
  DIIS enabled.
  MOM disabled.
  Fractional occupation disabled.
  Guess Type is SAD.
  Energy threshold   = 1.00e-06
  Density threshold  = 1.00e-06
  Integral threshold = 0.00e+00

  ==> Primary Basis <==

  Basis Set: AUG-CC-PVDZ
    Blend: AUG-CC-PVDZ
    Number of shells: 19
    Number of basis function: 41
    Number of Cartesian functions: 43
    Spherical Harmonics?: true
    Max angular momentum: 2

  ==> DFT Potential <==

   => Composite Functional: WB97X-D <= 

    wB97X-D Hyb-GGA Exchange-Correlation Functional

    J.-D. Chai and M. Head-Gordon, Phys. Chem. Chem. Phys. 10, 6615 (2008)

    Deriv               =              1
    GGA                 =           TRUE
    Meta                =          FALSE

    Exchange Hybrid     =           TRUE
    MP2 Hybrid          =          FALSE

   => Exchange-Correlation Functionals <=

    1.0000   wB97D range-separated functional

   => Exact (HF) Exchange <=

    0.7780            HF,LR [omega = 0.2000]
    0.2220               HF 

   => Molecular Quadrature <=

    Radial Scheme          =       TREUTLER
    Pruning Scheme         =           FLAT
    Nuclear Scheme         =       TREUTLER

    BS radius alpha        =              1
    Pruning alpha          =              1
    Radial Points          =             75
    Spherical Points       =            302
    Total Points           =          67950
    Total Blocks           =            564
    Max Points             =            256
    Max Functions          =             41

   => WB97X-D: Empirical Dispersion <=

    Chai and Head-Gordon Dispersion Correction
    Chai, J.-D.; Head-Gordon, M. (2010), J. Chem. Phys., 132: 6615-6620

        s6 =       1.000000

   => Loading Basis Set <=

    Name: (AUG-CC-PVDZ AUX)
    Role: JKFIT
    Keyword: DF_BASIS_SCF
    atoms 1   entry O          line   270 file /fsx/users/francis/anaconda3/envs/poltype-dev/share/psi4/basis/aug-cc-pvdz-jkfit.gbs 
    atoms 2-3 entry H          line    70 file /fsx/users/francis/anaconda3/envs/poltype-dev/share/psi4/basis/aug-cc-pvdz-jkfit.gbs 

  ==> Pre-Iterations <==

   -------------------------------------------------------
    Irrep   Nso     Nmo     Nalpha   Nbeta   Ndocc  Nsocc
   -------------------------------------------------------
     A         41      41       0       0       0       0
   -------------------------------------------------------
    Total      41      41       5       5       5       0
   -------------------------------------------------------

  ==> Integral Setup <==

  ==> DiskDFJK: Density-Fitted J/K Matrices <==

    J tasked:                  Yes
    K tasked:                  Yes
    wK tasked:                 Yes
    Omega:               2.000E-01
    OpenMP threads:              8
    Integrals threads:           8
    Memory [MiB]:            11363
    Algorithm:                Core
    Integral Cache:           NONE
    Schwarz Cutoff:          1E-12
    Fitting Condition:       1E-10

   => Auxiliary Basis Set <=

  Basis Set: (AUG-CC-PVDZ AUX)
    Blend: AUG-CC-PVDZ-JKFIT
    Number of shells: 52
    Number of basis function: 150
    Number of Cartesian functions: 171
    Spherical Harmonics?: true
    Max angular momentum: 3

  Cached 100.0% of DFT collocation blocks in 0.079 [GiB].

  Minimum eigenvalue in the overlap matrix is 2.8193515776E-03.
  Using Symmetric Orthogonalization.

  SCF Guess: Superposition of Atomic Densities via on-the-fly atomic UHF.

  ==> Iterations <==

                           Total Energy        Delta E     RMS |[F,P]|

   @DF-RKS iter SAD:   -75.95321700271099   -7.59532e+01   0.00000e+00 
   @DF-RKS iter   1:   -76.27476441399844   -3.21547e-01   1.51054e-02 DIIS
   @DF-RKS iter   2:   -76.22813353913304    4.66309e-02   1.77952e-02 DIIS
   @DF-RKS iter   3:   -76.41935955630618   -1.91226e-01   3.63709e-04 DIIS
   @DF-RKS iter   4:   -76.41950459429496   -1.45038e-04   9.79776e-05 DIIS
   @DF-RKS iter   5:   -76.41951244468933   -7.85039e-06   1.86390e-05 DIIS
   @DF-RKS iter   6:   -76.41951276996477   -3.25275e-07   2.02234e-06 DIIS
   @DF-RKS iter   7:   -76.41951278059177   -1.06270e-08   2.55049e-07 DIIS
  Energy and wave function converged.


  ==> Post-Iterations <==

    Orbital Energies [Eh]
    ---------------------

    Doubly Occupied:                                                      

       1A    -19.278283     2A     -1.119637     3A     -0.632119  
       4A     -0.478515     5A     -0.406743  

    Virtual:                                                              

       6A      0.034026     7A      0.060946     8A      0.162146  
       9A      0.190777    10A      0.199490    11A      0.217702  
      12A      0.255703    13A      0.301685    14A      0.361988  
      15A      0.378259    16A      0.408160    17A      0.518155  
      18A      0.580144    19A      0.603718    20A      0.717066  
      21A      0.809684    22A      0.980420    23A      0.991959  
      24A      1.034589    25A      1.174839    26A      1.289264  
      27A      1.315532    28A      1.397340    29A      1.817921  
      30A      1.850668    31A      1.920386    32A      2.227868  
      33A      2.233138    34A      2.376514    35A      2.497969  
      36A      2.710936    37A      3.372575    38A      3.384521  
      39A      3.402574    40A      3.737779    41A      3.969136  

    Final Occupation by Irrep:
              A 
    DOCC [     5 ]

  @DF-RKS Final Energy:   -76.41951278059177

   => Energetics <=

    Nuclear Repulsion Energy =              9.1676800421832514
    One-Electron Energy =                -122.9496038697939326
    Two-Electron Energy =                  43.8352063087565540
    DFT Exchange-Correlation Energy =      -6.4727644462493537
    Empirical Dispersion Energy =          -0.0000308154882910
    VV10 Nonlocal Energy =                  0.0000000000000000
    Total Energy =                        -76.4195127805917735

Computation Completed


Properties will be evaluated at  -4.823111,   0.505535,  -3.833115 [a0]

Properties computed using the SCF density matrix

  Nuclear Dipole Moment: [e a0]
     X:    -0.6318      Y:     0.6470      Z:    -0.2531

  Electronic Dipole Moment: [e a0]
     X:     0.1461      Y:    -0.1492      Z:     0.0583

  Dipole Moment: [e a0]
     X:    -0.4857      Y:     0.4977      Z:    -0.1949     Total:     0.7223

  Dipole Moment: [D]
     X:    -1.2346      Y:     1.2651      Z:    -0.4953     Total:     1.8358


*** tstop() called on cpu-spot-dy-c5n2xlarge-1 at Tue Jun 22 16:48:31 2021
Module time:
	user time   =       8.21 seconds =       0.14 minutes
	system time =       0.34 seconds =       0.01 minutes
	total time  =          1 seconds =       0.02 minutes
Total time:
	user time   =       8.21 seconds =       0.14 minutes
	system time =       0.34 seconds =       0.01 minutes
	total time  =          1 seconds =       0.02 minutes

       N-Body: Complex Energy (fragments = (2,), basis = (2,):   -76.41951278059177)

       N-Body: Computing complex (2/4) with fragments (2,) in the basis of fragments (1, 2).


*** tstart() called on cpu-spot-dy-c5n2xlarge-1
*** at Tue Jun 22 16:48:31 2021

   => Loading Basis Set <=

    Name: AUG-CC-PVDZ
    Role: ORBITAL
    Keyword: BASIS
    atoms 1             entry N          line   214 file /fsx/users/francis/anaconda3/envs/poltype-dev/share/psi4/basis/aug-cc-pvdz.gbs 
    atoms 2-3, 6-12, 14 entry C          line   178 file /fsx/users/francis/anaconda3/envs/poltype-dev/share/psi4/basis/aug-cc-pvdz.gbs 
    atoms 4-5           entry F          line   286 file /fsx/users/francis/anaconda3/envs/poltype-dev/share/psi4/basis/aug-cc-pvdz.gbs 
    atoms 13            entry S          line   698 file /fsx/users/francis/anaconda3/envs/poltype-dev/share/psi4/basis/aug-cc-pvdz.gbs 
    atoms 15-16, 24     entry O          line   250 file /fsx/users/francis/anaconda3/envs/poltype-dev/share/psi4/basis/aug-cc-pvdz.gbs 
    atoms 17-23, 25-26  entry H          line    36 file /fsx/users/francis/anaconda3/envs/poltype-dev/share/psi4/basis/aug-cc-pvdz.gbs 


         ---------------------------------------------------------
                                   SCF
               by Justin Turney, Rob Parrish, Andy Simmonett
                          and Daniel G. A. Smith
                              RKS Reference
                        8 Threads,  15258 MiB Core
         ---------------------------------------------------------

  ==> Geometry <==

    Molecular point group: c1
    Full point group: C1

    Geometry (in Angstrom), charge = 0, multiplicity = 1:

       Center              X                  Y                   Z               Mass       
    ------------   -----------------  -----------------  -----------------  -----------------
      Gh(N)          -0.736163547605    -1.520281605482     0.233063830788    14.003074004430
      Gh(C)          -2.001402547605    -1.269567605482     0.697613830788    12.000000000000
      Gh(C)          -2.299184547605     0.218610394518     1.073612830788    12.000000000000
      Gh(F)          -3.583133547605     0.524088394518     0.656255830788    18.998403162730
      Gh(F)          -2.276457547605     0.307399394518     2.446868830788    18.998403162730
      Gh(C)          -1.309444547605     1.295967394518     0.505323830788    12.000000000000
      Gh(C)           0.010818452395     0.815262394518     0.033656830788    12.000000000000
      Gh(C)           0.995477452395     1.734838394518    -0.388576169212    12.000000000000
      Gh(C)           2.252202452395     1.295401394518    -0.823182169212    12.000000000000
      Gh(C)           2.545207452395    -0.092067605482    -0.868496169212    12.000000000000
      Gh(C)           1.544493452395    -1.015960605482    -0.497663169212    12.000000000000
      Gh(C)           0.280688452395    -0.579420605482    -0.063982169212    12.000000000000
      Gh(S)           4.099727452395    -0.760638605482    -1.381685169212    31.972071174400
      Gh(C)           5.133058452395    -0.607436605482     0.096893830788    12.000000000000
      Gh(O)          -2.803123547605    -2.181622605482     0.849505830788    15.994914619570
      Gh(O)          -1.598920547605     2.490342394518     0.532318830788    15.994914619570
      Gh(H)           2.993714452395     2.039214394518    -1.113345169212     1.007825032230
      Gh(H)           0.756727452395     2.798206394518    -0.354959169212     1.007825032230
      Gh(H)          -0.583718547605    -2.500941605482     0.042974830788     1.007825032230
      Gh(H)           1.758923452395    -2.084987605482    -0.535152169212     1.007825032230
      Gh(H)           5.357271452395     0.449075394518     0.272610830788     1.007825032230
      Gh(H)           4.599864452395    -1.020378605482     0.958974830788     1.007825032230
      Gh(H)           6.063321452395    -1.161339605482    -0.059628169212     1.007825032230
         O           -2.509802547605     0.224019394518    -2.011377169212    15.994914619570
         H           -3.433956547605     0.244033394518    -1.751886169212     1.007825032230
         H           -2.344761547605     0.981345394518    -2.575025169212     1.007825032230

  Running in c1 symmetry.

  Rotational constants: A =      0.02799  B =      0.00756  C =      0.00707 [cm^-1]
  Rotational constants: A =    839.06212  B =    226.65692  C =    211.93969 [MHz]
  Nuclear repulsion =    9.167680042183251

  Charge       = 0
  Multiplicity = 1
  Electrons    = 10
  Nalpha       = 5
  Nbeta        = 5

  ==> Algorithm <==

  SCF Algorithm Type is DF.
  DIIS enabled.
  MOM disabled.
  Fractional occupation disabled.
  Guess Type is SAD.
  Energy threshold   = 1.00e-06
  Density threshold  = 1.00e-06
  Integral threshold = 0.00e+00

  ==> Primary Basis <==

  Basis Set: AUG-CC-PVDZ
    Blend: AUG-CC-PVDZ
    Number of shells: 200
    Number of basis function: 476
    Number of Cartesian functions: 510
    Spherical Harmonics?: true
    Max angular momentum: 2

  ==> DFT Potential <==

   => Composite Functional: WB97X-D <= 

    wB97X-D Hyb-GGA Exchange-Correlation Functional

    J.-D. Chai and M. Head-Gordon, Phys. Chem. Chem. Phys. 10, 6615 (2008)

    Deriv               =              1
    GGA                 =           TRUE
    Meta                =          FALSE

    Exchange Hybrid     =           TRUE
    MP2 Hybrid          =          FALSE

   => Exchange-Correlation Functionals <=

    1.0000   wB97D range-separated functional

   => Exact (HF) Exchange <=

    0.7780            HF,LR [omega = 0.2000]
    0.2220               HF 

   => Molecular Quadrature <=

    Radial Scheme          =       TREUTLER
    Pruning Scheme         =           FLAT
    Nuclear Scheme         =       TREUTLER

    BS radius alpha        =              1
    Pruning alpha          =              1
    Radial Points          =             75
    Spherical Points       =            302
    Total Points           =         588900
    Total Blocks           =           4345
    Max Points             =            256
    Max Functions          =            430

   => WB97X-D: Empirical Dispersion <=

    Chai and Head-Gordon Dispersion Correction
    Chai, J.-D.; Head-Gordon, M. (2010), J. Chem. Phys., 132: 6615-6620

        s6 =       1.000000

   => Loading Basis Set <=

    Name: (AUG-CC-PVDZ AUX)
    Role: JKFIT
    Keyword: DF_BASIS_SCF
    atoms 1             entry N          line   212 file /fsx/users/francis/anaconda3/envs/poltype-dev/share/psi4/basis/aug-cc-pvdz-jkfit.gbs 
    atoms 2-3, 6-12, 14 entry C          line   154 file /fsx/users/francis/anaconda3/envs/poltype-dev/share/psi4/basis/aug-cc-pvdz-jkfit.gbs 
    atoms 4-5           entry F          line   328 file /fsx/users/francis/anaconda3/envs/poltype-dev/share/psi4/basis/aug-cc-pvdz-jkfit.gbs 
    atoms 13            entry S          line   690 file /fsx/users/francis/anaconda3/envs/poltype-dev/share/psi4/basis/aug-cc-pvdz-jkfit.gbs 
    atoms 15-16, 24     entry O          line   270 file /fsx/users/francis/anaconda3/envs/poltype-dev/share/psi4/basis/aug-cc-pvdz-jkfit.gbs 
    atoms 17-23, 25-26  entry H          line    70 file /fsx/users/francis/anaconda3/envs/poltype-dev/share/psi4/basis/aug-cc-pvdz-jkfit.gbs 

  ==> Pre-Iterations <==

   -------------------------------------------------------
    Irrep   Nso     Nmo     Nalpha   Nbeta   Ndocc  Nsocc
   -------------------------------------------------------
     A        476     476       0       0       0       0
   -------------------------------------------------------
    Total     476     476       5       5       5       0
   -------------------------------------------------------

  ==> Integral Setup <==

  ==> DiskDFJK: Density-Fitted J/K Matrices <==

    J tasked:                  Yes
    K tasked:                  Yes
    wK tasked:                 Yes
    Omega:               2.000E-01
    OpenMP threads:              8
    Integrals threads:           8
    Memory [MiB]:             5862
    Algorithm:                Core
    Integral Cache:           NONE
    Schwarz Cutoff:          1E-12
    Fitting Condition:       1E-10

   => Auxiliary Basis Set <=

  Basis Set: (AUG-CC-PVDZ AUX)
    Blend: AUG-CC-PVDZ-JKFIT
    Number of shells: 596
    Number of basis function: 1792
    Number of Cartesian functions: 2081
    Spherical Harmonics?: true
    Max angular momentum: 3

  Cached 100.0% of DFT collocation blocks in 5.451 [GiB].

  Minimum eigenvalue in the overlap matrix is 1.3797283278E-06.
  Using Symmetric Orthogonalization.

  SCF Guess: Superposition of Atomic Densities via on-the-fly atomic UHF.

  ==> Iterations <==

                           Total Energy        Delta E     RMS |[F,P]|

   @DF-RKS iter SAD:   -75.95322570482121   -7.59532e+01   0.00000e+00 
   @DF-RKS iter   1:   -76.27522619143696   -3.22000e-01   1.30436e-03 DIIS
   @DF-RKS iter   2:   -76.22841361667254    4.68126e-02   1.53666e-03 DIIS
   @DF-RKS iter   3:   -76.41982317957567   -1.91410e-01   3.18668e-05 DIIS
   @DF-RKS iter   4:   -76.41997616855167   -1.52989e-04   8.78247e-06 DIIS
   @DF-RKS iter   5:   -76.41998469690070   -8.52835e-06   1.63216e-06 DIIS
   @DF-RKS iter   6:   -76.41998504221698   -3.45316e-07   1.83583e-07 DIIS
  Energy and wave function converged.


  ==> Post-Iterations <==

    Orbital Energies [Eh]
    ---------------------

    Doubly Occupied:                                                      

       1A    -19.278237     2A     -1.119475     3A     -0.631916  
       4A     -0.478302     5A     -0.406500  

    Virtual:                                                              

       6A      0.021252     7A      0.030678     8A      0.038376  
       9A      0.046134    10A      0.049898    11A      0.055307  
      12A      0.059972    13A      0.069367    14A      0.074231  
      15A      0.077707    16A      0.081654    17A      0.089675  
      18A      0.094145    19A      0.096793    20A      0.103896  
      21A      0.107653    22A      0.111089    23A      0.118113  
      24A      0.119946    25A      0.126138    26A      0.132797  
      27A      0.137016    28A      0.143627    29A      0.144944  
      30A      0.147327    31A      0.152923    32A      0.157730  
      33A      0.163795    34A      0.167395    35A      0.170497  
      36A      0.172998    37A      0.177453    38A      0.178683  
      39A      0.184652    40A      0.190626    41A      0.191950  
      42A      0.197182    43A      0.202231    44A      0.209116  
      45A      0.213945    46A      0.216693    47A      0.219436  
      48A      0.225001    49A      0.228327    50A      0.231825  
      51A      0.237785    52A      0.240888    53A      0.243326  
      54A      0.248101    55A      0.254212    56A      0.259299  
      57A      0.263953    58A      0.268590    59A      0.274774  
      60A      0.283412    61A      0.285009    62A      0.287610  
      63A      0.295885    64A      0.299275    65A      0.305550  
      66A      0.309520    67A      0.320277    68A      0.325458  
      69A      0.331911    70A      0.335737    71A      0.340183  
      72A      0.346958    73A      0.350665    74A      0.353036  
      75A      0.360673    76A      0.363330    77A      0.369409  
      78A      0.378380    79A      0.380950    80A      0.385912  
      81A      0.389058    82A      0.396429    83A      0.401895  
      84A      0.407846    85A      0.412599    86A      0.416975  
      87A      0.425589    88A      0.430002    89A      0.433539  
      90A      0.437876    91A      0.440690    92A      0.451857  
      93A      0.456856    94A      0.457373    95A      0.463008  
      96A      0.470165    97A      0.471432    98A      0.476965  
      99A      0.486325   100A      0.496702   101A      0.499998  
     102A      0.507087   103A      0.511376   104A      0.514669  
     105A      0.515141   106A      0.527203   107A      0.532783  
     108A      0.536923   109A      0.541742   110A      0.548800  
     111A      0.549756   112A      0.559044   113A      0.561784  
     114A      0.566518   115A      0.570276   116A      0.575696  
     117A      0.581043   118A      0.582648   119A      0.592690  
     120A      0.605222   121A      0.609707   122A      0.616858  
     123A      0.617995   124A      0.625096   125A      0.629570  
     126A      0.635137   127A      0.640534   128A      0.649225  
     129A      0.652913   130A      0.655185   131A      0.662503  
     132A      0.668622   133A      0.675000   134A      0.681170  
     135A      0.687253   136A      0.692632   137A      0.707170  
     138A      0.711823   139A      0.719330   140A      0.721125  
     141A      0.730148   142A      0.734544   143A      0.736924  
     144A      0.750301   145A      0.751604   146A      0.764876  
     147A      0.770617   148A      0.773823   149A      0.787948  
     150A      0.794633   151A      0.799878   152A      0.803381  
     153A      0.809158   154A      0.817989   155A      0.820506  
     156A      0.833149   157A      0.836638   158A      0.843151  
     159A      0.847928   160A      0.860077   161A      0.861777  
     162A      0.863878   163A      0.867916   164A      0.879598  
     165A      0.882714   166A      0.890114   167A      0.896481  
     168A      0.904291   169A      0.908699   170A      0.922418  
     171A      0.925757   172A      0.941567   173A      0.949068  
     174A      0.953233   175A      0.961619   176A      0.966697  
     177A      0.969675   178A      0.978485   179A      0.983110  
     180A      0.988953   181A      0.994131   182A      0.998882  
     183A      1.005814   184A      1.015126   185A      1.022251  
     186A      1.026895   187A      1.038663   188A      1.047220  
     189A      1.056783   190A      1.066501   191A      1.079932  
     192A      1.082818   193A      1.087697   194A      1.098882  
     195A      1.109580   196A      1.123966   197A      1.128976  
     198A      1.140291   199A      1.158384   200A      1.169575  
     201A      1.171677   202A      1.179479   203A      1.182865  
     204A      1.187870   205A      1.197922   206A      1.212506  
     207A      1.222303   208A      1.231375   209A      1.236448  
     210A      1.244433   211A      1.257580   212A      1.263557  
     213A      1.274305   214A      1.285243   215A      1.314792  
     216A      1.326094   217A      1.329463   218A      1.333573  
     219A      1.345926   220A      1.347577   221A      1.358470  
     222A      1.364274   223A      1.386270   224A      1.396272  
     225A      1.408578   226A      1.429787   227A      1.436965  
     228A      1.445146   229A      1.451045   230A      1.463110  
     231A      1.478036   232A      1.484108   233A      1.495143  
     234A      1.506699   235A      1.518645   236A      1.525278  
     237A      1.543556   238A      1.565075   239A      1.570460  
     240A      1.579078   241A      1.591852   242A      1.603557  
     243A      1.623045   244A      1.639587   245A      1.646990  
     246A      1.666345   247A      1.672865   248A      1.691901  
     249A      1.713641   250A      1.718266   251A      1.727564  
     252A      1.750334   253A      1.768494   254A      1.783812  
     255A      1.803133   256A      1.816804   257A      1.821981  
     258A      1.824780   259A      1.864862   260A      1.883747  
     261A      1.892360   262A      1.901437   263A      1.913544  
     264A      1.934108   265A      1.946803   266A      1.962068  
     267A      1.975709   268A      2.033043   269A      2.047031  
     270A      2.056661   271A      2.060822   272A      2.080761  
     273A      2.085494   274A      2.092626   275A      2.102331  
     276A      2.117429   277A      2.127655   278A      2.147810  
     279A      2.158110   280A      2.179327   281A      2.195298  
     282A      2.197047   283A      2.210127   284A      2.225750  
     285A      2.230584   286A      2.250721   287A      2.252277  
     288A      2.257333   289A      2.266811   290A      2.277157  
     291A      2.285740   292A      2.290958   293A      2.295665  
     294A      2.301372   295A      2.314807   296A      2.326100  
     297A      2.335061   298A      2.340488   299A      2.348536  
     300A      2.350930   301A      2.359653   302A      2.373747  
     303A      2.383642   304A      2.386247   305A      2.405102  
     306A      2.416693   307A      2.423485   308A      2.432289  
     309A      2.435459   310A      2.459972   311A      2.466514  
     312A      2.508610   313A      2.520296   314A      2.535231  
     315A      2.556032   316A      2.572922   317A      2.580727  
     318A      2.597964   319A      2.609276   320A      2.626433  
     321A      2.638200   322A      2.639692   323A      2.653212  
     324A      2.667490   325A      2.672988   326A      2.685316  
     327A      2.700897   328A      2.716986   329A      2.750844  
     330A      2.763992   331A      2.769276   332A      2.799059  
     333A      2.818076   334A      2.821063   335A      2.834382  
     336A      2.848132   337A      2.861425   338A      2.886364  
     339A      2.893364   340A      2.899014   341A      2.919463  
     342A      2.929264   343A      2.941786   344A      2.964782  
     345A      2.993359   346A      3.005451   347A      3.030123  
     348A      3.033311   349A      3.044651   350A      3.068815  
     351A      3.080908   352A      3.105006   353A      3.137346  
     354A      3.149576   355A      3.187637   356A      3.191475  
     357A      3.255654   358A      3.272754   359A      3.277409  
     360A      3.285691   361A      3.294061   362A      3.319990  
     363A      3.331411   364A      3.368657   365A      3.370282  
     366A      3.443448   367A      3.454015   368A      3.474291  
     369A      3.499401   370A      3.500267   371A      3.521124  
     372A      3.547360   373A      3.551432   374A      3.576026  
     375A      3.612721   376A      3.638761   377A      3.667359  
     378A      3.685724   379A      3.716558   380A      3.732342  
     381A      3.787758   382A      3.815514   383A      3.849263  
     384A      3.877680   385A      3.913315   386A      3.923448  
     387A      3.994345   388A      4.021889   389A      4.039823  
     390A      4.075087   391A      4.109040   392A      4.150451  
     393A      4.200337   394A      4.252579   395A      4.334468  
     396A      4.359187   397A      4.379540   398A      4.391797  
     399A      4.475032   400A      4.539087   401A      4.547087  
     402A      4.612886   403A      4.662708   404A      4.693238  
     405A      4.745960   406A      4.813520   407A      4.848125  
     408A      4.918499   409A      4.967931   410A      5.016541  
     411A      5.040342   412A      5.056616   413A      5.066307  
     414A      5.072203   415A      5.075367   416A      5.093597  
     417A      5.102376   418A      5.104380   419A      5.141951  
     420A      5.223359   421A      5.274604   422A      5.301904  
     423A      5.327955   424A      5.387172   425A      5.422073  
     426A      5.446267   427A      5.484480   428A      5.540904  
     429A      5.638314   430A      5.844607   431A      5.994291  
     432A      6.055690   433A      6.066831   434A      6.146994  
     435A      6.172749   436A      6.194358   437A      6.463092  
     438A      6.521818   439A      6.817744   440A      6.831362  
     441A      6.869334   442A      6.872396   443A      6.884750  
     444A      6.916951   445A      6.947762   446A      6.960674  
     447A      6.980521   448A      6.998364   449A      7.035186  
     450A      7.072366   451A      7.136894   452A      7.804250  
     453A      7.946223   454A      8.005522   455A      8.111552  
     456A      8.157094   457A      8.265709   458A     18.012683  
     459A     18.423639   460A     18.571185   461A     18.633339  
     462A     18.806765   463A     18.905514   464A     19.164874  
     465A     19.380232   466A     19.664692   467A     20.633233  
     468A     20.754050   469A     20.894206   470A     21.437089  
     471A     25.500371   472A     33.553234   473A     33.561283  
     474A     43.018786   475A     43.023535   476A    138.006257  

    Final Occupation by Irrep:
              A 
    DOCC [     5 ]

  @DF-RKS Final Energy:   -76.41998504221698

   => Energetics <=

    Nuclear Repulsion Energy =              9.1676800421832514
    One-Electron Energy =                -122.9520129650928624
    Two-Electron Energy =                  43.8374432110006964
    DFT Exchange-Correlation Energy =      -6.4730645148197610
    Empirical Dispersion Energy =          -0.0000308154882910
    VV10 Nonlocal Energy =                  0.0000000000000000
    Total Energy =                        -76.4199850422169504

Computation Completed


Properties will be evaluated at   0.000000,   0.000000,  -0.000000 [a0]

Properties computed using the SCF density matrix

  Nuclear Dipole Moment: [e a0]
     X:   -48.8629      Y:     5.7023      Z:   -38.5843

  Electronic Dipole Moment: [e a0]
     X:    48.3786      Y:    -5.2060      Z:    38.3906

  Dipole Moment: [e a0]
     X:    -0.4843      Y:     0.4963      Z:    -0.1937     Total:     0.7200

  Dipole Moment: [D]
     X:    -1.2311      Y:     1.2615      Z:    -0.4922     Total:     1.8301


*** tstop() called on cpu-spot-dy-c5n2xlarge-1 at Tue Jun 22 16:49:53 2021
Module time:
	user time   =     594.98 seconds =       9.92 minutes
	system time =       7.10 seconds =       0.12 minutes
	total time  =         82 seconds =       1.37 minutes
Total time:
	user time   =     603.26 seconds =      10.05 minutes
	system time =       7.44 seconds =       0.12 minutes
	total time  =         83 seconds =       1.38 minutes

       N-Body: Complex Energy (fragments = (2,), basis = (1, 2):   -76.41998504221698)

       N-Body: Computing complex (3/4) with fragments (1,) in the basis of fragments (1, 2).


*** tstart() called on cpu-spot-dy-c5n2xlarge-1
*** at Tue Jun 22 16:49:53 2021

   => Loading Basis Set <=

    Name: AUG-CC-PVDZ
    Role: ORBITAL
    Keyword: BASIS
    atoms 1             entry N          line   214 file /fsx/users/francis/anaconda3/envs/poltype-dev/share/psi4/basis/aug-cc-pvdz.gbs 
    atoms 2-3, 6-12, 14 entry C          line   178 file /fsx/users/francis/anaconda3/envs/poltype-dev/share/psi4/basis/aug-cc-pvdz.gbs 
    atoms 4-5           entry F          line   286 file /fsx/users/francis/anaconda3/envs/poltype-dev/share/psi4/basis/aug-cc-pvdz.gbs 
    atoms 13            entry S          line   698 file /fsx/users/francis/anaconda3/envs/poltype-dev/share/psi4/basis/aug-cc-pvdz.gbs 
    atoms 15-16, 24     entry O          line   250 file /fsx/users/francis/anaconda3/envs/poltype-dev/share/psi4/basis/aug-cc-pvdz.gbs 
    atoms 17-23, 25-26  entry H          line    36 file /fsx/users/francis/anaconda3/envs/poltype-dev/share/psi4/basis/aug-cc-pvdz.gbs 


         ---------------------------------------------------------
                                   SCF
               by Justin Turney, Rob Parrish, Andy Simmonett
                          and Daniel G. A. Smith
                              RKS Reference
                        8 Threads,  15258 MiB Core
         ---------------------------------------------------------

  ==> Geometry <==

    Molecular point group: c1
    Full point group: C1

    Geometry (in Angstrom), charge = 0, multiplicity = 1:

       Center              X                  Y                   Z               Mass       
    ------------   -----------------  -----------------  -----------------  -----------------
         N           -0.736163547605    -1.520281605482     0.233063830788    14.003074004430
         C           -2.001402547605    -1.269567605482     0.697613830788    12.000000000000
         C           -2.299184547605     0.218610394518     1.073612830788    12.000000000000
         F           -3.583133547605     0.524088394518     0.656255830788    18.998403162730
         F           -2.276457547605     0.307399394518     2.446868830788    18.998403162730
         C           -1.309444547605     1.295967394518     0.505323830788    12.000000000000
         C            0.010818452395     0.815262394518     0.033656830788    12.000000000000
         C            0.995477452395     1.734838394518    -0.388576169212    12.000000000000
         C            2.252202452395     1.295401394518    -0.823182169212    12.000000000000
         C            2.545207452395    -0.092067605482    -0.868496169212    12.000000000000
         C            1.544493452395    -1.015960605482    -0.497663169212    12.000000000000
         C            0.280688452395    -0.579420605482    -0.063982169212    12.000000000000
         S            4.099727452395    -0.760638605482    -1.381685169212    31.972071174400
         C            5.133058452395    -0.607436605482     0.096893830788    12.000000000000
         O           -2.803123547605    -2.181622605482     0.849505830788    15.994914619570
         O           -1.598920547605     2.490342394518     0.532318830788    15.994914619570
         H            2.993714452395     2.039214394518    -1.113345169212     1.007825032230
         H            0.756727452395     2.798206394518    -0.354959169212     1.007825032230
         H           -0.583718547605    -2.500941605482     0.042974830788     1.007825032230
         H            1.758923452395    -2.084987605482    -0.535152169212     1.007825032230
         H            5.357271452395     0.449075394518     0.272610830788     1.007825032230
         H            4.599864452395    -1.020378605482     0.958974830788     1.007825032230
         H            6.063321452395    -1.161339605482    -0.059628169212     1.007825032230
      Gh(O)          -2.509802547605     0.224019394518    -2.011377169212    15.994914619570
      Gh(H)          -3.433956547605     0.244033394518    -1.751886169212     1.007825032230
      Gh(H)          -2.344761547605     0.981345394518    -2.575025169212     1.007825032230

  Running in c1 symmetry.

  Rotational constants: A =      0.02799  B =      0.00756  C =      0.00707 [cm^-1]
  Rotational constants: A =    839.06212  B =    226.65692  C =    211.93969 [MHz]
  Nuclear repulsion = 1178.105340247073173

  Charge       = 0
  Multiplicity = 1
  Electrons    = 124
  Nalpha       = 62
  Nbeta        = 62

  ==> Algorithm <==

  SCF Algorithm Type is DF.
  DIIS enabled.
  MOM disabled.
  Fractional occupation disabled.
  Guess Type is SAD.
  Energy threshold   = 1.00e-06
  Density threshold  = 1.00e-06
  Integral threshold = 0.00e+00

  ==> Primary Basis <==

  Basis Set: AUG-CC-PVDZ
    Blend: AUG-CC-PVDZ
    Number of shells: 200
    Number of basis function: 476
    Number of Cartesian functions: 510
    Spherical Harmonics?: true
    Max angular momentum: 2

  ==> DFT Potential <==

   => Composite Functional: WB97X-D <= 

    wB97X-D Hyb-GGA Exchange-Correlation Functional

    J.-D. Chai and M. Head-Gordon, Phys. Chem. Chem. Phys. 10, 6615 (2008)

    Deriv               =              1
    GGA                 =           TRUE
    Meta                =          FALSE

    Exchange Hybrid     =           TRUE
    MP2 Hybrid          =          FALSE

   => Exchange-Correlation Functionals <=

    1.0000   wB97D range-separated functional

   => Exact (HF) Exchange <=

    0.7780            HF,LR [omega = 0.2000]
    0.2220               HF 

   => Molecular Quadrature <=

    Radial Scheme          =       TREUTLER
    Pruning Scheme         =           FLAT
    Nuclear Scheme         =       TREUTLER

    BS radius alpha        =              1
    Pruning alpha          =              1
    Radial Points          =             75
    Spherical Points       =            302
    Total Points           =         588900
    Total Blocks           =           4345
    Max Points             =            256
    Max Functions          =            430

   => WB97X-D: Empirical Dispersion <=

    Chai and Head-Gordon Dispersion Correction
    Chai, J.-D.; Head-Gordon, M. (2010), J. Chem. Phys., 132: 6615-6620

        s6 =       1.000000

   => Loading Basis Set <=

    Name: (AUG-CC-PVDZ AUX)
    Role: JKFIT
    Keyword: DF_BASIS_SCF
    atoms 1             entry N          line   212 file /fsx/users/francis/anaconda3/envs/poltype-dev/share/psi4/basis/aug-cc-pvdz-jkfit.gbs 
    atoms 2-3, 6-12, 14 entry C          line   154 file /fsx/users/francis/anaconda3/envs/poltype-dev/share/psi4/basis/aug-cc-pvdz-jkfit.gbs 
    atoms 4-5           entry F          line   328 file /fsx/users/francis/anaconda3/envs/poltype-dev/share/psi4/basis/aug-cc-pvdz-jkfit.gbs 
    atoms 13            entry S          line   690 file /fsx/users/francis/anaconda3/envs/poltype-dev/share/psi4/basis/aug-cc-pvdz-jkfit.gbs 
    atoms 15-16, 24     entry O          line   270 file /fsx/users/francis/anaconda3/envs/poltype-dev/share/psi4/basis/aug-cc-pvdz-jkfit.gbs 
    atoms 17-23, 25-26  entry H          line    70 file /fsx/users/francis/anaconda3/envs/poltype-dev/share/psi4/basis/aug-cc-pvdz-jkfit.gbs 

  ==> Pre-Iterations <==

   -------------------------------------------------------
    Irrep   Nso     Nmo     Nalpha   Nbeta   Ndocc  Nsocc
   -------------------------------------------------------
     A        476     476       0       0       0       0
   -------------------------------------------------------
    Total     476     476      62      62      62       0
   -------------------------------------------------------

  ==> Integral Setup <==

  ==> DiskDFJK: Density-Fitted J/K Matrices <==

    J tasked:                  Yes
    K tasked:                  Yes
    wK tasked:                 Yes
    Omega:               2.000E-01
    OpenMP threads:              8
    Integrals threads:           8
    Memory [MiB]:             5862
    Algorithm:                Core
    Integral Cache:           NONE
    Schwarz Cutoff:          1E-12
    Fitting Condition:       1E-10

   => Auxiliary Basis Set <=

  Basis Set: (AUG-CC-PVDZ AUX)
    Blend: AUG-CC-PVDZ-JKFIT
    Number of shells: 596
    Number of basis function: 1792
    Number of Cartesian functions: 2081
    Spherical Harmonics?: true
    Max angular momentum: 3

  Cached 100.0% of DFT collocation blocks in 5.451 [GiB].

  Minimum eigenvalue in the overlap matrix is 1.3797283278E-06.
  Using Symmetric Orthogonalization.

  SCF Guess: Superposition of Atomic Densities via on-the-fly atomic UHF.

  ==> Iterations <==

                           Total Energy        Delta E     RMS |[F,P]|

   @DF-RKS iter SAD: -1187.39106523272267   -1.18739e+03   0.00000e+00 
   @DF-RKS iter   1: -1187.69098349095907   -2.99918e-01   2.21300e-03 DIIS
   @DF-RKS iter   2: -1187.69913876213764   -8.15527e-03   2.40490e-03 DIIS
   @DF-RKS iter   3: -1188.17508766624042   -4.75949e-01   5.66721e-04 DIIS
   @DF-RKS iter   4: -1188.20335863533774   -2.82710e-02   1.48331e-04 DIIS
   @DF-RKS iter   5: -1188.20555976128003   -2.20113e-03   4.24277e-05 DIIS
   @DF-RKS iter   6: -1188.20578294699362   -2.23186e-04   1.44182e-05 DIIS
   @DF-RKS iter   7: -1188.20580909402634   -2.61470e-05   4.47286e-06 DIIS
   @DF-RKS iter   8: -1188.20581405055418   -4.95653e-06   1.64739e-06 DIIS
   @DF-RKS iter   9: -1188.20581525708394   -1.20653e-06   1.05701e-06 DIIS
   @DF-RKS iter  10: -1188.20581550290171   -2.45818e-07   3.76198e-07 DIIS
  Energy and wave function converged.


  ==> Post-Iterations <==

    Orbital Energies [Eh]
    ---------------------

    Doubly Occupied:                                                      

       1A    -89.069949     2A    -24.879001     3A    -24.868428  
       4A    -19.303995     5A    -19.288047     6A    -14.536911  
       7A    -10.509255     8A    -10.455448     9A    -10.436344  
      10A    -10.407951    11A    -10.379044    12A    -10.356697  
      13A    -10.352182    14A    -10.350200    15A    -10.345725  
      16A    -10.343884    17A     -8.087454    18A     -6.037327  
      19A     -6.033192    20A     -6.026230    21A     -1.384453  
      22A     -1.326723    23A     -1.190321    24A     -1.179953  
      25A     -1.094081    26A     -1.000649    27A     -0.938494  
      28A     -0.903646    29A     -0.888636    30A     -0.866717  
      31A     -0.792727    32A     -0.765830    33A     -0.752160  
      34A     -0.740138    35A     -0.695517    36A     -0.678217  
      37A     -0.668056    38A     -0.643640    39A     -0.628609  
      40A     -0.591007    41A     -0.579540    42A     -0.568218  
      43A     -0.563280    44A     -0.557305    45A     -0.554946  
      46A     -0.549674    47A     -0.538769    48A     -0.533997  
      49A     -0.527376    50A     -0.516975    51A     -0.511435  
      52A     -0.500775    53A     -0.494125    54A     -0.480110  
      55A     -0.474202    56A     -0.441325    57A     -0.420548  
      58A     -0.398027    59A     -0.371718    60A     -0.368327  
      61A     -0.340388    62A     -0.332523  

    Virtual:                                                              

      63A     -0.057255    64A      0.006667    65A      0.023650  
      66A      0.032272    67A      0.036048    68A      0.039952  
      69A      0.048452    70A      0.051093    71A      0.057990  
      72A      0.060140    73A      0.065116    74A      0.075122  
      75A      0.077207    76A      0.080294    77A      0.090889  
      78A      0.094229    79A      0.100071    80A      0.106062  
      81A      0.107475    82A      0.112911    83A      0.115631  
      84A      0.119099    85A      0.121862    86A      0.127503  
      87A      0.130656    88A      0.132279    89A      0.135773  
      90A      0.144077    91A      0.146938    92A      0.150747  
      93A      0.152667    94A      0.157159    95A      0.163434  
      96A      0.165232    97A      0.167984    98A      0.169656  
      99A      0.174999   100A      0.178424   101A      0.178834  
     102A      0.181592   103A      0.187344   104A      0.193247  
     105A      0.199421   106A      0.202664   107A      0.206347  
     108A      0.210587   109A      0.214387   110A      0.217628  
     111A      0.222941   112A      0.229135   113A      0.232827  
     114A      0.233964   115A      0.238395   116A      0.239808  
     117A      0.242957   118A      0.250883   119A      0.256369  
     120A      0.257007   121A      0.261807   122A      0.263394  
     123A      0.269246   124A      0.273822   125A      0.276238  
     126A      0.278206   127A      0.280724   128A      0.285816  
     129A      0.287461   130A      0.288084   131A      0.292357  
     132A      0.299107   133A      0.305514   134A      0.308306  
     135A      0.312082   136A      0.317893   137A      0.321659  
     138A      0.326944   139A      0.331260   140A      0.337194  
     141A      0.340546   142A      0.344435   143A      0.346965  
     144A      0.348325   145A      0.355155   146A      0.359245  
     147A      0.366389   148A      0.369779   149A      0.372112  
     150A      0.376646   151A      0.378926   152A      0.384628  
     153A      0.386579   154A      0.389234   155A      0.397507  
     156A      0.404391   157A      0.410611   158A      0.411278  
     159A      0.413073   160A      0.419019   161A      0.426387  
     162A      0.430590   163A      0.435250   164A      0.441309  
     165A      0.446188   166A      0.447340   167A      0.457772  
     168A      0.465800   169A      0.468033   170A      0.477434  
     171A      0.482113   172A      0.486521   173A      0.488790  
     174A      0.495458   175A      0.497830   176A      0.501432  
     177A      0.504196   178A      0.512109   179A      0.513277  
     180A      0.523295   181A      0.526798   182A      0.528665  
     183A      0.537942   184A      0.539638   185A      0.543785  
     186A      0.548053   187A      0.553600   188A      0.556371  
     189A      0.564261   190A      0.571402   191A      0.575353  
     192A      0.580579   193A      0.588574   194A      0.595808  
     195A      0.597827   196A      0.602812   197A      0.609104  
     198A      0.613250   199A      0.624939   200A      0.628119  
     201A      0.632342   202A      0.633534   203A      0.635731  
     204A      0.640617   205A      0.643987   206A      0.650007  
     207A      0.652614   208A      0.657812   209A      0.663179  
     210A      0.669930   211A      0.674189   212A      0.677224  
     213A      0.680836   214A      0.683211   215A      0.692938  
     216A      0.696730   217A      0.700460   218A      0.705590  
     219A      0.709726   220A      0.713485   221A      0.723708  
     222A      0.728535   223A      0.735264   224A      0.749199  
     225A      0.758258   226A      0.760528   227A      0.765043  
     228A      0.768544   229A      0.778012   230A      0.786362  
     231A      0.794445   232A      0.799384   233A      0.805144  
     234A      0.810693   235A      0.819263   236A      0.824224  
     237A      0.830765   238A      0.832833   239A      0.837328  
     240A      0.841334   241A      0.851262   242A      0.855764  
     243A      0.857556   244A      0.869307   245A      0.880464  
     246A      0.886139   247A      0.894209   248A      0.902975  
     249A      0.905670   250A      0.921776   251A      0.927418  
     252A      0.936098   253A      0.946868   254A      0.950478  
     255A      0.956989   256A      0.967649   257A      0.977325  
     258A      0.989997   259A      0.995295   260A      1.006336  
     261A      1.013906   262A      1.020905   263A      1.033976  
     264A      1.044391   265A      1.050881   266A      1.059875  
     267A      1.072594   268A      1.085099   269A      1.090991  
     270A      1.097144   271A      1.102498   272A      1.109968  
     273A      1.122756   274A      1.129585   275A      1.142068  
     276A      1.147989   277A      1.152633   278A      1.164760  
     279A      1.171239   280A      1.185138   281A      1.185940  
     282A      1.206488   283A      1.213871   284A      1.226979  
     285A      1.234622   286A      1.238243   287A      1.251439  
     288A      1.256627   289A      1.266422   290A      1.278484  
     291A      1.284907   292A      1.299146   293A      1.304416  
     294A      1.310396   295A      1.324791   296A      1.328010  
     297A      1.338601   298A      1.347320   299A      1.360610  
     300A      1.367781   301A      1.370490   302A      1.383711  
     303A      1.391175   304A      1.403997   305A      1.408144  
     306A      1.413060   307A      1.422952   308A      1.426628  
     309A      1.438709   310A      1.450270   311A      1.454406  
     312A      1.469320   313A      1.472958   314A      1.483372  
     315A      1.485690   316A      1.497522   317A      1.508889  
     318A      1.516015   319A      1.537377   320A      1.547267  
     321A      1.551732   322A      1.561436   323A      1.567267  
     324A      1.568802   325A      1.577717   326A      1.601631  
     327A      1.602275   328A      1.606151   329A      1.614127  
     330A      1.619628   331A      1.629801   332A      1.633082  
     333A      1.638014   334A      1.654491   335A      1.661563  
     336A      1.672257   337A      1.679689   338A      1.689929  
     339A      1.698269   340A      1.710032   341A      1.721154  
     342A      1.726206   343A      1.728282   344A      1.739339  
     345A      1.751011   346A      1.762395   347A      1.772968  
     348A      1.783963   349A      1.794100   350A      1.801700  
     351A      1.807463   352A      1.823247   353A      1.830747  
     354A      1.843071   355A      1.851549   356A      1.865253  
     357A      1.870821   358A      1.881384   359A      1.889544  
     360A      1.897061   361A      1.899413   362A      1.919875  
     363A      1.937009   364A      1.941275   365A      1.947450  
     366A      1.952489   367A      1.963266   368A      1.972242  
     369A      1.989469   370A      2.000921   371A      2.004787  
     372A      2.024352   373A      2.025812   374A      2.039344  
     375A      2.050220   376A      2.060610   377A      2.074502  
     378A      2.079834   379A      2.096282   380A      2.099300  
     381A      2.107074   382A      2.124448   383A      2.137462  
     384A      2.141102   385A      2.154832   386A      2.174832  
     387A      2.179943   388A      2.203251   389A      2.209172  
     390A      2.222309   391A      2.234159   392A      2.252006  
     393A      2.255902   394A      2.278789   395A      2.292589  
     396A      2.314192   397A      2.320260   398A      2.334738  
     399A      2.339676   400A      2.344510   401A      2.354928  
     402A      2.369497   403A      2.393780   404A      2.408748  
     405A      2.421610   406A      2.433379   407A      2.447936  
     408A      2.502496   409A      2.503598   410A      2.531368  
     411A      2.554701   412A      2.571037   413A      2.586411  
     414A      2.602270   415A      2.622686   416A      2.634875  
     417A      2.649641   418A      2.666088   419A      2.673853  
     420A      2.684344   421A      2.692989   422A      2.701700  
     423A      2.714062   424A      2.737863   425A      2.751264  
     426A      2.796448   427A      2.849017   428A      2.862923  
     429A      2.962649   430A      2.978825   431A      3.027253  
     432A      3.041348   433A      3.118727   434A      3.167168  
     435A      3.209433   436A      3.386459   437A      3.394967  
     438A      3.401216   439A      3.455098   440A      3.468846  
     441A      3.491393   442A      3.512454   443A      3.521209  
     444A      3.546058   445A      3.568895   446A      3.575484  
     447A      3.581877   448A      3.618122   449A      3.707967  
     450A      3.716624   451A      3.768562   452A      3.858791  
     453A      3.887237   454A      4.011587   455A      4.138140  
     456A      4.187360   457A      4.483227   458A      4.627498  
     459A      4.671607   460A      4.712573   461A      4.727798  
     462A      4.750809   463A      4.765133   464A      4.795979  
     465A      4.824805   466A      4.882890   467A      4.907962  
     468A      5.020413   469A      5.067220   470A      5.094749  
     471A      5.254057   472A      5.491905   473A      5.860433  
     474A      6.631471   475A      7.088687   476A     33.574955  

    Final Occupation by Irrep:
              A 
    DOCC [    62 ]

  @DF-RKS Final Energy: -1188.20581550290171

   => Energetics <=

    Nuclear Repulsion Energy =           1178.1053402470731726
    One-Electron Energy =               -3970.6436820005246773
    Two-Electron Energy =                1693.8845458152404717
    DFT Exchange-Correlation Energy =     -89.5385704233876538
    Empirical Dispersion Energy =          -0.0134491413032513
    VV10 Nonlocal Energy =                  0.0000000000000000
    Total Energy =                      -1188.2058155029017144

Computation Completed


Properties will be evaluated at   0.000000,   0.000000,  -0.000000 [a0]

Properties computed using the SCF density matrix

  Nuclear Dipole Moment: [e a0]
     X:    68.6867      Y:    -6.7396      Z:    30.8212

  Electronic Dipole Moment: [e a0]
     X:   -66.1311      Y:     6.3105      Z:   -31.1486

  Dipole Moment: [e a0]
     X:     2.5556      Y:    -0.4290      Z:    -0.3274     Total:     2.6119

  Dipole Moment: [D]
     X:     6.4956      Y:    -1.0905      Z:    -0.8321     Total:     6.6388


*** tstop() called on cpu-spot-dy-c5n2xlarge-1 at Tue Jun 22 16:52:00 2021
Module time:
	user time   =     938.01 seconds =      15.63 minutes
	system time =       8.88 seconds =       0.15 minutes
	total time  =        127 seconds =       2.12 minutes
Total time:
	user time   =    1541.31 seconds =      25.69 minutes
	system time =      16.32 seconds =       0.27 minutes
	total time  =        210 seconds =       3.50 minutes

       N-Body: Complex Energy (fragments = (1,), basis = (1, 2): -1188.20581550290171)

       N-Body: Computing complex (4/4) with fragments (1,) in the basis of fragments (1,).


*** tstart() called on cpu-spot-dy-c5n2xlarge-1
*** at Tue Jun 22 16:52:00 2021

   => Loading Basis Set <=

    Name: AUG-CC-PVDZ
    Role: ORBITAL
    Keyword: BASIS
    atoms 1             entry N          line   214 file /fsx/users/francis/anaconda3/envs/poltype-dev/share/psi4/basis/aug-cc-pvdz.gbs 
    atoms 2-3, 6-12, 14 entry C          line   178 file /fsx/users/francis/anaconda3/envs/poltype-dev/share/psi4/basis/aug-cc-pvdz.gbs 
    atoms 4-5           entry F          line   286 file /fsx/users/francis/anaconda3/envs/poltype-dev/share/psi4/basis/aug-cc-pvdz.gbs 
    atoms 13            entry S          line   698 file /fsx/users/francis/anaconda3/envs/poltype-dev/share/psi4/basis/aug-cc-pvdz.gbs 
    atoms 15-16         entry O          line   250 file /fsx/users/francis/anaconda3/envs/poltype-dev/share/psi4/basis/aug-cc-pvdz.gbs 
    atoms 17-23         entry H          line    36 file /fsx/users/francis/anaconda3/envs/poltype-dev/share/psi4/basis/aug-cc-pvdz.gbs 


         ---------------------------------------------------------
                                   SCF
               by Justin Turney, Rob Parrish, Andy Simmonett
                          and Daniel G. A. Smith
                              RKS Reference
                        8 Threads,  15258 MiB Core
         ---------------------------------------------------------

  ==> Geometry <==

    Molecular point group: c1
    Full point group: C1

    Geometry (in Angstrom), charge = 0, multiplicity = 1:

       Center              X                  Y                   Z               Mass       
    ------------   -----------------  -----------------  -----------------  -----------------
         N           -0.736163547605    -1.520281605482     0.233063830788    14.003074004430
         C           -2.001402547605    -1.269567605482     0.697613830788    12.000000000000
         C           -2.299184547605     0.218610394518     1.073612830788    12.000000000000
         F           -3.583133547605     0.524088394518     0.656255830788    18.998403162730
         F           -2.276457547605     0.307399394518     2.446868830788    18.998403162730
         C           -1.309444547605     1.295967394518     0.505323830788    12.000000000000
         C            0.010818452395     0.815262394518     0.033656830788    12.000000000000
         C            0.995477452395     1.734838394518    -0.388576169212    12.000000000000
         C            2.252202452395     1.295401394518    -0.823182169212    12.000000000000
         C            2.545207452395    -0.092067605482    -0.868496169212    12.000000000000
         C            1.544493452395    -1.015960605482    -0.497663169212    12.000000000000
         C            0.280688452395    -0.579420605482    -0.063982169212    12.000000000000
         S            4.099727452395    -0.760638605482    -1.381685169212    31.972071174400
         C            5.133058452395    -0.607436605482     0.096893830788    12.000000000000
         O           -2.803123547605    -2.181622605482     0.849505830788    15.994914619570
         O           -1.598920547605     2.490342394518     0.532318830788    15.994914619570
         H            2.993714452395     2.039214394518    -1.113345169212     1.007825032230
         H            0.756727452395     2.798206394518    -0.354959169212     1.007825032230
         H           -0.583718547605    -2.500941605482     0.042974830788     1.007825032230
         H            1.758923452395    -2.084987605482    -0.535152169212     1.007825032230
         H            5.357271452395     0.449075394518     0.272610830788     1.007825032230
         H            4.599864452395    -1.020378605482     0.958974830788     1.007825032230
         H            6.063321452395    -1.161339605482    -0.059628169212     1.007825032230

  Running in c1 symmetry.

  Rotational constants: A =      0.03529  B =      0.00828  C =      0.00729 [cm^-1]
  Rotational constants: A =   1058.01711  B =    248.09231  C =    218.50986 [MHz]
  Nuclear repulsion = 1178.105340247073173

  Charge       = 0
  Multiplicity = 1
  Electrons    = 124
  Nalpha       = 62
  Nbeta        = 62

  ==> Algorithm <==

  SCF Algorithm Type is DF.
  DIIS enabled.
  MOM disabled.
  Fractional occupation disabled.
  Guess Type is SAD.
  Energy threshold   = 1.00e-06
  Density threshold  = 1.00e-06
  Integral threshold = 0.00e+00

  ==> Primary Basis <==

  Basis Set: AUG-CC-PVDZ
    Blend: AUG-CC-PVDZ
    Number of shells: 181
    Number of basis function: 435
    Number of Cartesian functions: 467
    Spherical Harmonics?: true
    Max angular momentum: 2

  ==> DFT Potential <==

   => Composite Functional: WB97X-D <= 

    wB97X-D Hyb-GGA Exchange-Correlation Functional

    J.-D. Chai and M. Head-Gordon, Phys. Chem. Chem. Phys. 10, 6615 (2008)

    Deriv               =              1
    GGA                 =           TRUE
    Meta                =          FALSE

    Exchange Hybrid     =           TRUE
    MP2 Hybrid          =          FALSE

   => Exchange-Correlation Functionals <=

    1.0000   wB97D range-separated functional

   => Exact (HF) Exchange <=

    0.7780            HF,LR [omega = 0.2000]
    0.2220               HF 

   => Molecular Quadrature <=

    Radial Scheme          =       TREUTLER
    Pruning Scheme         =           FLAT
    Nuclear Scheme         =       TREUTLER

    BS radius alpha        =              1
    Pruning alpha          =              1
    Radial Points          =             75
    Spherical Points       =            302
    Total Points           =         520950
    Total Blocks           =           3838
    Max Points             =            256
    Max Functions          =            395

   => WB97X-D: Empirical Dispersion <=

    Chai and Head-Gordon Dispersion Correction
    Chai, J.-D.; Head-Gordon, M. (2010), J. Chem. Phys., 132: 6615-6620

        s6 =       1.000000

   => Loading Basis Set <=

    Name: (AUG-CC-PVDZ AUX)
    Role: JKFIT
    Keyword: DF_BASIS_SCF
    atoms 1             entry N          line   212 file /fsx/users/francis/anaconda3/envs/poltype-dev/share/psi4/basis/aug-cc-pvdz-jkfit.gbs 
    atoms 2-3, 6-12, 14 entry C          line   154 file /fsx/users/francis/anaconda3/envs/poltype-dev/share/psi4/basis/aug-cc-pvdz-jkfit.gbs 
    atoms 4-5           entry F          line   328 file /fsx/users/francis/anaconda3/envs/poltype-dev/share/psi4/basis/aug-cc-pvdz-jkfit.gbs 
    atoms 13            entry S          line   690 file /fsx/users/francis/anaconda3/envs/poltype-dev/share/psi4/basis/aug-cc-pvdz-jkfit.gbs 
    atoms 15-16         entry O          line   270 file /fsx/users/francis/anaconda3/envs/poltype-dev/share/psi4/basis/aug-cc-pvdz-jkfit.gbs 
    atoms 17-23         entry H          line    70 file /fsx/users/francis/anaconda3/envs/poltype-dev/share/psi4/basis/aug-cc-pvdz-jkfit.gbs 

  ==> Pre-Iterations <==

   -------------------------------------------------------
    Irrep   Nso     Nmo     Nalpha   Nbeta   Ndocc  Nsocc
   -------------------------------------------------------
     A        435     435       0       0       0       0
   -------------------------------------------------------
    Total     435     435      62      62      62       0
   -------------------------------------------------------

  ==> Integral Setup <==

  ==> DiskDFJK: Density-Fitted J/K Matrices <==

    J tasked:                  Yes
    K tasked:                  Yes
    wK tasked:                 Yes
    Omega:               2.000E-01
    OpenMP threads:              8
    Integrals threads:           8
    Memory [MiB]:             6790
    Algorithm:                Core
    Integral Cache:           NONE
    Schwarz Cutoff:          1E-12
    Fitting Condition:       1E-10

   => Auxiliary Basis Set <=

  Basis Set: (AUG-CC-PVDZ AUX)
    Blend: AUG-CC-PVDZ-JKFIT
    Number of shells: 544
    Number of basis function: 1642
    Number of Cartesian functions: 1910
    Spherical Harmonics?: true
    Max angular momentum: 3

  Cached 100.0% of DFT collocation blocks in 4.545 [GiB].

  Minimum eigenvalue in the overlap matrix is 1.4648872090E-06.
  Using Symmetric Orthogonalization.

  SCF Guess: Superposition of Atomic Densities via on-the-fly atomic UHF.

  ==> Iterations <==

                           Total Energy        Delta E     RMS |[F,P]|

   @DF-RKS iter SAD: -1187.39121019391405   -1.18739e+03   0.00000e+00 
   @DF-RKS iter   1: -1187.69038979805100   -2.99180e-01   2.42064e-03 DIIS
   @DF-RKS iter   2: -1187.69849108865242   -8.10129e-03   2.63125e-03 DIIS
   @DF-RKS iter   3: -1188.17457706182086   -4.76086e-01   6.19760e-04 DIIS
   @DF-RKS iter   4: -1188.20282638339881   -2.82493e-02   1.62121e-04 DIIS
   @DF-RKS iter   5: -1188.20502327575696   -2.19689e-03   4.64159e-05 DIIS
   @DF-RKS iter   6: -1188.20524642756800   -2.23152e-04   1.57684e-05 DIIS
   @DF-RKS iter   7: -1188.20527255547790   -2.61279e-05   4.89147e-06 DIIS
   @DF-RKS iter   8: -1188.20527751029317   -4.95482e-06   1.80171e-06 DIIS
   @DF-RKS iter   9: -1188.20527871731633   -1.20702e-06   1.15588e-06 DIIS
   @DF-RKS iter  10: -1188.20527896296608   -2.45650e-07   4.11495e-07 DIIS
  Energy and wave function converged.


  ==> Post-Iterations <==

    Orbital Energies [Eh]
    ---------------------

    Doubly Occupied:                                                      

       1A    -89.069951     2A    -24.878946     3A    -24.868362  
       4A    -19.303956     5A    -19.288023     6A    -14.536963  
       7A    -10.509440     8A    -10.455540     9A    -10.436379  
      10A    -10.408002    11A    -10.379103    12A    -10.356730  
      13A    -10.352228    14A    -10.350258    15A    -10.345749  
      16A    -10.343934    17A     -8.087469    18A     -6.037339  
      19A     -6.033211    20A     -6.026242    21A     -1.384555  
      22A     -1.326831    23A     -1.190382    24A     -1.180041  
      25A     -1.094149    26A     -1.000718    27A     -0.938556  
      28A     -0.903716    29A     -0.888701    30A     -0.866780  
      31A     -0.792787    32A     -0.765897    33A     -0.752231  
      34A     -0.740200    35A     -0.695597    36A     -0.678294  
      37A     -0.668139    38A     -0.643704    39A     -0.628686  
      40A     -0.591077    41A     -0.579605    42A     -0.568287  
      43A     -0.563334    44A     -0.557364    45A     -0.555015  
      46A     -0.549744    47A     -0.538824    48A     -0.534015  
      49A     -0.527423    50A     -0.517053    51A     -0.511491  
      52A     -0.500837    53A     -0.494192    54A     -0.480166  
      55A     -0.474275    56A     -0.441369    57A     -0.420590  
      58A     -0.398085    59A     -0.371783    60A     -0.368363  
      61A     -0.340427    62A     -0.332550  

    Virtual:                                                              

      63A     -0.057326    64A      0.006649    65A      0.023891  
      66A      0.032490    67A      0.036422    68A      0.041189  
      69A      0.048625    70A      0.057417    71A      0.058582  
      72A      0.064852    73A      0.072612    74A      0.077322  
      75A      0.082790    76A      0.090451    77A      0.093723  
      78A      0.101605    79A      0.105622    80A      0.110990  
      81A      0.111572    82A      0.115805    83A      0.119780  
      84A      0.123578    85A      0.129380    86A      0.133077  
      87A      0.136331    88A      0.139648    89A      0.146952  
      90A      0.150402    91A      0.154978    92A      0.158311  
      93A      0.159027    94A      0.165632    95A      0.168686  
      96A      0.172019    97A      0.174615    98A      0.174917  
      99A      0.180820   100A      0.181730   101A      0.188202  
     102A      0.192599   103A      0.198679   104A      0.204461  
     105A      0.209462   106A      0.212972   107A      0.215807  
     108A      0.221935   109A      0.226108   110A      0.229213  
     111A      0.232818   112A      0.236689   113A      0.239185  
     114A      0.246386   115A      0.248862   116A      0.252296  
     117A      0.258521   118A      0.260140   119A      0.263307  
     120A      0.268748   121A      0.272749   122A      0.278169  
     123A      0.279665   124A      0.281961   125A      0.287651  
     126A      0.294497   127A      0.297389   128A      0.302711  
     129A      0.306557   130A      0.309156   131A      0.310864  
     132A      0.321644   133A      0.324472   134A      0.327289  
     135A      0.328468   136A      0.336089   137A      0.340076  
     138A      0.343909   139A      0.347661   140A      0.352245  
     141A      0.360864   142A      0.363512   143A      0.367145  
     144A      0.373968   145A      0.375573   146A      0.379170  
     147A      0.382550   148A      0.385653   149A      0.388754  
     150A      0.390243   151A      0.402484   152A      0.407282  
     153A      0.411883   154A      0.414115   155A      0.416679  
     156A      0.419824   157A      0.431564   158A      0.435957  
     159A      0.440140   160A      0.442825   161A      0.450625  
     162A      0.461569   163A      0.465526   164A      0.473075  
     165A      0.479837   166A      0.485065   167A      0.487982  
     168A      0.490890   169A      0.497342   170A      0.504121  
     171A      0.512191   172A      0.515385   173A      0.522083  
     174A      0.531268   175A      0.533732   176A      0.540582  
     177A      0.542746   178A      0.547514   179A      0.551124  
     180A      0.563316   181A      0.567236   182A      0.577393  
     183A      0.581658   184A      0.589353   185A      0.595364  
     186A      0.601614   187A      0.604892   188A      0.614835  
     189A      0.618642   190A      0.621699   191A      0.628356  
     192A      0.635537   193A      0.636209   194A      0.640154  
     195A      0.643853   196A      0.652126   197A      0.657215  
     198A      0.663010   199A      0.667345   200A      0.673113  
     201A      0.675616   202A      0.680267   203A      0.687932  
     204A      0.693581   205A      0.698129   206A      0.703913  
     207A      0.708922   208A      0.718257   209A      0.727853  
     210A      0.733236   211A      0.743902   212A      0.751512  
     213A      0.752757   214A      0.754591   215A      0.764952  
     216A      0.770424   217A      0.773879   218A      0.781796  
     219A      0.790584   220A      0.795059   221A      0.802428  
     222A      0.805403   223A      0.813650   224A      0.820533  
     225A      0.827209   226A      0.836543   227A      0.837994  
     228A      0.842201   229A      0.850117   230A      0.854854  
     231A      0.868926   232A      0.872949   233A      0.882027  
     234A      0.891567   235A      0.901691   236A      0.915006  
     237A      0.921427   238A      0.929866   239A      0.941543  
     240A      0.948676   241A      0.951572   242A      0.970823  
     243A      0.972229   244A      0.987983   245A      0.995869  
     246A      1.000848   247A      1.013892   248A      1.028298  
     249A      1.036623   250A      1.044344   251A      1.057068  
     252A      1.066532   253A      1.072569   254A      1.084672  
     255A      1.097478   256A      1.099245   257A      1.107730  
     258A      1.114231   259A      1.132902   260A      1.140087  
     261A      1.146293   262A      1.147421   263A      1.159503  
     264A      1.179253   265A      1.191025   266A      1.195813  
     267A      1.215422   268A      1.218019   269A      1.226643  
     270A      1.243611   271A      1.260132   272A      1.271854  
     273A      1.275916   274A      1.285980   275A      1.291128  
     276A      1.298625   277A      1.315559   278A      1.319853  
     279A      1.337245   280A      1.347460   281A      1.356921  
     282A      1.359291   283A      1.364799   284A      1.386120  
     285A      1.388298   286A      1.408151   287A      1.412863  
     288A      1.422266   289A      1.432658   290A      1.443357  
     291A      1.458764   292A      1.469314   293A      1.472245  
     294A      1.485212   295A      1.497141   296A      1.503661  
     297A      1.522329   298A      1.532688   299A      1.541626  
     300A      1.548130   301A      1.554164   302A      1.562107  
     303A      1.564898   304A      1.581012   305A      1.583544  
     306A      1.591029   307A      1.605059   308A      1.607810  
     309A      1.610361   310A      1.619715   311A      1.628891  
     312A      1.636671   313A      1.647526   314A      1.653604  
     315A      1.667633   316A      1.672260   317A      1.685003  
     318A      1.691090   319A      1.697370   320A      1.715860  
     321A      1.729241   322A      1.732521   323A      1.735918  
     324A      1.752301   325A      1.756369   326A      1.765112  
     327A      1.780456   328A      1.791108   329A      1.807586  
     330A      1.817653   331A      1.822989   332A      1.837770  
     333A      1.844773   334A      1.862777   335A      1.874569  
     336A      1.883356   337A      1.886144   338A      1.894180  
     339A      1.911628   340A      1.917231   341A      1.929372  
     342A      1.931168   343A      1.947659   344A      1.959074  
     345A      1.964163   346A      1.970419   347A      1.984078  
     348A      1.993700   349A      1.998658   350A      2.018370  
     351A      2.022307   352A      2.036269   353A      2.051313  
     354A      2.061234   355A      2.076188   356A      2.084279  
     357A      2.093561   358A      2.094081   359A      2.122939  
     360A      2.131408   361A      2.138311   362A      2.155604  
     363A      2.169451   364A      2.171339   365A      2.199788  
     366A      2.203235   367A      2.217625   368A      2.225128  
     369A      2.236144   370A      2.269496   371A      2.285182  
     372A      2.304524   373A      2.310310   374A      2.324990  
     375A      2.334351   376A      2.341918   377A      2.352917  
     378A      2.364631   379A      2.385329   380A      2.405307  
     381A      2.411730   382A      2.443799   383A      2.477951  
     384A      2.496130   385A      2.515305   386A      2.542174  
     387A      2.566759   388A      2.597426   389A      2.612598  
     390A      2.642081   391A      2.662586   392A      2.665247  
     393A      2.685402   394A      2.694738   395A      2.710246  
     396A      2.728587   397A      2.748974   398A      2.775760  
     399A      2.852577   400A      2.945998   401A      2.959809  
     402A      3.013251   403A      3.025245   404A      3.095017  
     405A      3.125626   406A      3.162296   407A      3.354148  
     408A      3.379268   409A      3.387709   410A      3.429533  
     411A      3.458560   412A      3.469753   413A      3.485506  
     414A      3.502473   415A      3.535903   416A      3.551876  
     417A      3.561273   418A      3.598127   419A      3.682747  
     420A      3.703679   421A      3.759058   422A      3.831357  
     423A      3.858700   424A      3.970722   425A      4.456320  
     426A      4.623592   427A      4.664167   428A      4.688325  
     429A      4.722754   430A      4.746293   431A      4.751475  
     432A      4.777991   433A      4.818762   434A      4.850821  
     435A      4.900299  

    Final Occupation by Irrep:
              A 
    DOCC [    62 ]

  @DF-RKS Final Energy: -1188.20527896296608

   => Energetics <=

    Nuclear Repulsion Energy =           1178.1053402470731726
    One-Electron Energy =               -3970.6363406820282762
    Two-Electron Energy =                1693.8773952543763244
    DFT Exchange-Correlation Energy =     -89.5382246410842697
    Empirical Dispersion Energy =          -0.0134491413032513
    VV10 Nonlocal Energy =                  0.0000000000000000
    Total Energy =                      -1188.2052789629660765

Computation Completed


Properties will be evaluated at   0.357453,  -0.037466,   0.284082 [a0]

Properties computed using the SCF density matrix

  Nuclear Dipole Moment: [e a0]
     X:    24.3625      Y:    -2.0937      Z:    -4.4049

  Electronic Dipole Moment: [e a0]
     X:   -21.8058      Y:     1.6646      Z:     4.0768

  Dipole Moment: [e a0]
     X:     2.5567      Y:    -0.4292      Z:    -0.3282     Total:     2.6132

  Dipole Moment: [D]
     X:     6.4985      Y:    -1.0908      Z:    -0.8341     Total:     6.6420


*** tstop() called on cpu-spot-dy-c5n2xlarge-1 at Tue Jun 22 16:53:36 2021
Module time:
	user time   =     714.27 seconds =      11.90 minutes
	system time =       7.33 seconds =       0.12 minutes
	total time  =         96 seconds =       1.60 minutes
Total time:
	user time   =    2255.63 seconds =      37.59 minutes
	system time =      23.65 seconds =       0.39 minutes
	total time  =        306 seconds =       5.10 minutes

       N-Body: Complex Energy (fragments = (1,), basis = (1,): -1188.20527896296608)

   ==> N-Body: Now computing 2-body complexes <==


       N-Body: Computing complex (1/1) with fragments (1, 2) in the basis of fragments (1, 2).


*** tstart() called on cpu-spot-dy-c5n2xlarge-1
*** at Tue Jun 22 16:53:36 2021

   => Loading Basis Set <=

    Name: AUG-CC-PVDZ
    Role: ORBITAL
    Keyword: BASIS
    atoms 1             entry N          line   214 file /fsx/users/francis/anaconda3/envs/poltype-dev/share/psi4/basis/aug-cc-pvdz.gbs 
    atoms 2-3, 6-12, 14 entry C          line   178 file /fsx/users/francis/anaconda3/envs/poltype-dev/share/psi4/basis/aug-cc-pvdz.gbs 
    atoms 4-5           entry F          line   286 file /fsx/users/francis/anaconda3/envs/poltype-dev/share/psi4/basis/aug-cc-pvdz.gbs 
    atoms 13            entry S          line   698 file /fsx/users/francis/anaconda3/envs/poltype-dev/share/psi4/basis/aug-cc-pvdz.gbs 
    atoms 15-16, 24     entry O          line   250 file /fsx/users/francis/anaconda3/envs/poltype-dev/share/psi4/basis/aug-cc-pvdz.gbs 
    atoms 17-23, 25-26  entry H          line    36 file /fsx/users/francis/anaconda3/envs/poltype-dev/share/psi4/basis/aug-cc-pvdz.gbs 


         ---------------------------------------------------------
                                   SCF
               by Justin Turney, Rob Parrish, Andy Simmonett
                          and Daniel G. A. Smith
                              RKS Reference
                        8 Threads,  15258 MiB Core
         ---------------------------------------------------------

  ==> Geometry <==

    Molecular point group: c1
    Full point group: C1

    Geometry (in Angstrom), charge = 0, multiplicity = 1:

       Center              X                  Y                   Z               Mass       
    ------------   -----------------  -----------------  -----------------  -----------------
         N           -0.736163547605    -1.520281605482     0.233063830788    14.003074004430
         C           -2.001402547605    -1.269567605482     0.697613830788    12.000000000000
         C           -2.299184547605     0.218610394518     1.073612830788    12.000000000000
[...]
         H            5.357271452395     0.449075394518     0.272610830788     1.007825032230
         H            4.599864452395    -1.020378605482     0.958974830788     1.007825032230
         H            6.063321452395    -1.161339605482    -0.059628169212     1.007825032230
         O           -2.509802547605     0.224019394518    -2.011377169212    15.994914619570
         H           -3.433956547605     0.244033394518    -1.751886169212     1.007825032230
         H           -2.344761547605     0.981345394518    -2.575025169212     1.007825032230

  Running in c1 symmetry.

  Rotational constants: A =      0.02799  B =      0.00756  C =      0.00707 [cm^-1]
  Rotational constants: A =    839.06212  B =    226.65692  C =    211.93969 [MHz]
  Nuclear repulsion = 1346.221072844937453

  Charge       = 0
  Multiplicity = 1
  Electrons    = 134
  Nalpha       = 67
  Nbeta        = 67

  ==> Algorithm <==

  SCF Algorithm Type is DF.
  DIIS enabled.
  MOM disabled.
  Fractional occupation disabled.
  Guess Type is SAD.
  Energy threshold   = 1.00e-06
  Density threshold  = 1.00e-06
  Integral threshold = 0.00e+00

  ==> Primary Basis <==

  Basis Set: AUG-CC-PVDZ
    Blend: AUG-CC-PVDZ
    Number of shells: 200
    Number of basis function: 476
    Number of Cartesian functions: 510
    Spherical Harmonics?: true
    Max angular momentum: 2

  ==> DFT Potential <==

   => Composite Functional: WB97X-D <= 

    wB97X-D Hyb-GGA Exchange-Correlation Functional

    J.-D. Chai and M. Head-Gordon, Phys. Chem. Chem. Phys. 10, 6615 (2008)

    Deriv               =              1
    GGA                 =           TRUE
    Meta                =          FALSE

    Exchange Hybrid     =           TRUE
    MP2 Hybrid          =          FALSE

   => Exchange-Correlation Functionals <=

    1.0000   wB97D range-separated functional

   => Exact (HF) Exchange <=

    0.7780            HF,LR [omega = 0.2000]
    0.2220               HF 

   => Molecular Quadrature <=

    Radial Scheme          =       TREUTLER
    Pruning Scheme         =           FLAT
    Nuclear Scheme         =       TREUTLER

    BS radius alpha        =              1
    Pruning alpha          =              1
    Radial Points          =             75
    Spherical Points       =            302
    Total Points           =         588900
    Total Blocks           =           4345
    Max Points             =            256
    Max Functions          =            430

   => WB97X-D: Empirical Dispersion <=

    Chai and Head-Gordon Dispersion Correction
    Chai, J.-D.; Head-Gordon, M. (2010), J. Chem. Phys., 132: 6615-6620

        s6 =       1.000000

   => Loading Basis Set <=

    Name: (AUG-CC-PVDZ AUX)
    Role: JKFIT
    Keyword: DF_BASIS_SCF
    atoms 1             entry N          line   212 file /fsx/users/francis/anaconda3/envs/poltype-dev/share/psi4/basis/aug-cc-pvdz-jkfit.gbs 
    atoms 2-3, 6-12, 14 entry C          line   154 file /fsx/users/francis/anaconda3/envs/poltype-dev/share/psi4/basis/aug-cc-pvdz-jkfit.gbs 
    atoms 4-5           entry F          line   328 file /fsx/users/francis/anaconda3/envs/poltype-dev/share/psi4/basis/aug-cc-pvdz-jkfit.gbs 
    atoms 13            entry S          line   690 file /fsx/users/francis/anaconda3/envs/poltype-dev/share/psi4/basis/aug-cc-pvdz-jkfit.gbs 
    atoms 15-16, 24     entry O          line   270 file /fsx/users/francis/anaconda3/envs/poltype-dev/share/psi4/basis/aug-cc-pvdz-jkfit.gbs 
    atoms 17-23, 25-26  entry H          line    70 file /fsx/users/francis/anaconda3/envs/poltype-dev/share/psi4/basis/aug-cc-pvdz-jkfit.gbs 

  ==> Pre-Iterations <==

   -------------------------------------------------------
    Irrep   Nso     Nmo     Nalpha   Nbeta   Ndocc  Nsocc
   -------------------------------------------------------
     A        476     476       0       0       0       0
   -------------------------------------------------------
    Total     476     476      67      67      67       0
   -------------------------------------------------------

  ==> Integral Setup <==

  ==> DiskDFJK: Density-Fitted J/K Matrices <==

    J tasked:                  Yes
    K tasked:                  Yes
    wK tasked:                 Yes
    Omega:               2.000E-01
    OpenMP threads:              8
    Integrals threads:           8
    Memory [MiB]:             5862
    Algorithm:                Core
    Integral Cache:           NONE
    Schwarz Cutoff:          1E-12
    Fitting Condition:       1E-10

   => Auxiliary Basis Set <=

  Basis Set: (AUG-CC-PVDZ AUX)
    Blend: AUG-CC-PVDZ-JKFIT
    Number of shells: 596
    Number of basis function: 1792
    Number of Cartesian functions: 2081
    Spherical Harmonics?: true
    Max angular momentum: 3

  Cached 100.0% of DFT collocation blocks in 5.451 [GiB].

  Minimum eigenvalue in the overlap matrix is 1.3797283278E-06.
  Using Symmetric Orthogonalization.

  SCF Guess: Superposition of Atomic Densities via on-the-fly atomic UHF.

  ==> Iterations <==

                           Total Energy        Delta E     RMS |[F,P]|

   @DF-RKS iter SAD: -1263.44307562000859   -1.26344e+03   0.00000e+00 
   @DF-RKS iter   1: -1263.98986927842111   -5.46794e-01   2.53580e-03 DIIS
   @DF-RKS iter   2: -1263.99379544174326   -3.92616e-03   2.72761e-03 DIIS
   @DF-RKS iter   3: -1264.60936669346393   -6.15571e-01   5.17666e-04 DIIS
   @DF-RKS iter   4: -1264.63173175280372   -2.23651e-02   1.88161e-04 DIIS
   @DF-RKS iter   5: -1264.63491615257203   -3.18440e-03   5.26874e-05 DIIS
   @DF-RKS iter   6: -1264.63520787903394   -2.91726e-04   1.37905e-05 DIIS
   @DF-RKS iter   7: -1264.63523586733027   -2.79883e-05   4.64063e-06 DIIS
   @DF-RKS iter   8: -1264.63524089384646   -5.02652e-06   1.92515e-06 DIIS
   @DF-RKS iter   9: -1264.63524209345519   -1.19961e-06   1.21660e-06 DIIS
   @DF-RKS iter  10: -1264.63524242990138   -3.36446e-07   3.73584e-07 DIIS
  Energy and wave function converged.


  ==> Post-Iterations <==

    Orbital Energies [Eh]
    ---------------------

    Doubly Occupied:                                                      

       1A    -89.065039     2A    -24.874722     3A    -24.867691  
       4A    -19.296498     5A    -19.291396     6A    -19.280850  
       7A    -14.527563     8A    -10.504070     9A    -10.448569  
      10A    -10.430802    11A    -10.399677    12A    -10.372198  
      13A    -10.349088    14A    -10.345408    15A    -10.343185  
      16A    -10.341422    17A    -10.337666    18A     -8.082532  
      19A     -6.032393    20A     -6.028272    21A     -6.021328  
      22A     -1.381700    23A     -1.325099    24A     -1.182940  
      25A     -1.173387    26A     -1.133490    27A     -1.085003  
      28A     -0.993553    29A     -0.931957    30A     -0.897012  
      31A     -0.881663    32A     -0.860973    33A     -0.787172  
      34A     -0.758590    35A     -0.744916    36A     -0.734796  
      37A     -0.690310    38A     -0.672225    39A     -0.665485  
      40A     -0.646596    41A     -0.636242    42A     -0.622367  
      43A     -0.584148    44A     -0.574038    45A     -0.561712  
      46A     -0.557171    47A     -0.551202    48A     -0.549849  
      49A     -0.545652    50A     -0.534713    51A     -0.529699  
      52A     -0.522750    53A     -0.516015    54A     -0.505547  
      55A     -0.496134    56A     -0.493723    57A     -0.488717  
      58A     -0.474216    59A     -0.468098    60A     -0.434707  
      61A     -0.420110    62A     -0.414391    63A     -0.391576  
      64A     -0.365591    65A     -0.361501    66A     -0.333074  
      67A     -0.326988  

    Virtual:                                                              

      68A     -0.047545    69A      0.013326    70A      0.026773  
      71A      0.034328    72A      0.036740    73A      0.043046  
      74A      0.049210    75A      0.051930    76A      0.060114  
      77A      0.065041    78A      0.067522    79A      0.073943  
      80A      0.079669    81A      0.080590    82A      0.094022  
      83A      0.096250    84A      0.103669    85A      0.108359  
      86A      0.110476    87A      0.117231    88A      0.117576  
      89A      0.121523    90A      0.124847    91A      0.130603  
      92A      0.133063    93A      0.133891    94A      0.139667  
      95A      0.145863    96A      0.148329    97A      0.152285  
      98A      0.155242    99A      0.159503   100A      0.164578  
     101A      0.168010   102A      0.170052   103A      0.174764  
     104A      0.176429   105A      0.181295   106A      0.182138  
     107A      0.184124   108A      0.189738   109A      0.197196  
     110A      0.200068   111A      0.203861   112A      0.205375  
     113A      0.213631   114A      0.215398   115A      0.219862  
     116A      0.224532   117A      0.228152   118A      0.232265  
     119A      0.235349   120A      0.239383   121A      0.242788  
     122A      0.246544   123A      0.252866   124A      0.257468  
     125A      0.261514   126A      0.266421   127A      0.268790  
     128A      0.272046   129A      0.276963   130A      0.277712  
     131A      0.281103   132A      0.282959   133A      0.284502  
     134A      0.286588   135A      0.292372   136A      0.294717  
     137A      0.299844   138A      0.305808   139A      0.311770  
     140A      0.312972   141A      0.318644   142A      0.320997  
     143A      0.322934   144A      0.332269   145A      0.333519  
     146A      0.340514   147A      0.345211   148A      0.351393  
     149A      0.352723   150A      0.357334   151A      0.361553  
     152A      0.368527   153A      0.369163   154A      0.372452  
     155A      0.378603   156A      0.383224   157A      0.384915  
     158A      0.387122   159A      0.389474   160A      0.396725  
     161A      0.399873   162A      0.408373   163A      0.409478  
     164A      0.411997   165A      0.419987   166A      0.421073  
     167A      0.425757   168A      0.433450   169A      0.436666  
     170A      0.438778   171A      0.445602   172A      0.448714  
     173A      0.457695   174A      0.462406   175A      0.470958  
     176A      0.472824   177A      0.481368   178A      0.487528  
     179A      0.489214   180A      0.495277   181A      0.500634  
     182A      0.501901   183A      0.512561   184A      0.514247  
     185A      0.518183   186A      0.522288   187A      0.530219  
     188A      0.535573   189A      0.537857   190A      0.542066  
     191A      0.549165   192A      0.550854   193A      0.561253  
     194A      0.562562   195A      0.570002   196A      0.576695  
     197A      0.580649   198A      0.584348   199A      0.589331  
     200A      0.592880   201A      0.600572   202A      0.608565  
     203A      0.616191   204A      0.618996   205A      0.625628  
     206A      0.626986   207A      0.634458   208A      0.636591  
     209A      0.638746   210A      0.645792   211A      0.649759  
     212A      0.651503   213A      0.657949   214A      0.662727  
     215A      0.665612   216A      0.676422   217A      0.679934  
     218A      0.684006   219A      0.685215   220A      0.691312  
     221A      0.697846   222A      0.701616   223A      0.703947  
     224A      0.713429   225A      0.714961   226A      0.724372  
     227A      0.730312   228A      0.733392   229A      0.735172  
     230A      0.749505   231A      0.761236   232A      0.765589  
     233A      0.770617   234A      0.780729   235A      0.783540  
     236A      0.786973   237A      0.797548   238A      0.803740  
     239A      0.813772   240A      0.817573   241A      0.819985  
     242A      0.832938   243A      0.835335   244A      0.838888  
     245A      0.844557   246A      0.850736   247A      0.858447  
     248A      0.862304   249A      0.869266   250A      0.875045  
     251A      0.883265   252A      0.892824   253A      0.899607  
     254A      0.903045   255A      0.911500   256A      0.925187  
     257A      0.931031   258A      0.931635   259A      0.950215  
     260A      0.954292   261A      0.957565   262A      0.963893  
     263A      0.980844   264A      0.985761   265A      0.998029  
     266A      1.007126   267A      1.014724   268A      1.024586  
     269A      1.038363   270A      1.045115   271A      1.061651  
     272A      1.065301   273A      1.079097   274A      1.084210  
     275A      1.093104   276A      1.098662   277A      1.106131  
     278A      1.110634   279A      1.121134   280A      1.132342  
     281A      1.145012   282A      1.152461   283A      1.154490  
     284A      1.158189   285A      1.166471   286A      1.170728  
     287A      1.184679   288A      1.193183   289A      1.208260  
     290A      1.220068   291A      1.224560   292A      1.237773  
     293A      1.244569   294A      1.261860   295A      1.270418  
     296A      1.288867   297A      1.290243   298A      1.298445  
     299A      1.303733   300A      1.310767   301A      1.314787  
     302A      1.327727   303A      1.343611   304A      1.347118  
     305A      1.361489   306A      1.368740   307A      1.376149  
     308A      1.387400   309A      1.392331   310A      1.408869  
     311A      1.419658   312A      1.424727   313A      1.436676  
     314A      1.441219   315A      1.450394   316A      1.459791  
     317A      1.465535   318A      1.474100   319A      1.487990  
     320A      1.494024   321A      1.502799   322A      1.512844  
     323A      1.516031   324A      1.538611   325A      1.550303  
     326A      1.555435   327A      1.564594   328A      1.566794  
     329A      1.571608   330A      1.583912   331A      1.599314  
     332A      1.609912   333A      1.613884   334A      1.615017  
     335A      1.616460   336A      1.630049   337A      1.631960  
     338A      1.639857   339A      1.658732   340A      1.668863  
     341A      1.673656   342A      1.682946   343A      1.692148  
     344A      1.701008   345A      1.707762   346A      1.721948  
     347A      1.725089   348A      1.736055   349A      1.743042  
     350A      1.752484   351A      1.763833   352A      1.775566  
     353A      1.777615   354A      1.793469   355A      1.802474  
     356A      1.821637   357A      1.827074   358A      1.834825  
     359A      1.844426   360A      1.860916   361A      1.864793  
     362A      1.869310   363A      1.877077   364A      1.888005  
     365A      1.896165   366A      1.902401   367A      1.913406  
     368A      1.925077   369A      1.936665   370A      1.951422  
     371A      1.953980   372A      1.961176   373A      1.970260  
     374A      1.980792   375A      1.993893   376A      2.002506  
     377A      2.005173   378A      2.018845   379A      2.026901  
     380A      2.040910   381A      2.047216   382A      2.065012  
     383A      2.070705   384A      2.078108   385A      2.090128  
     386A      2.099660   387A      2.104541   388A      2.121046  
     389A      2.134830   390A      2.148546   391A      2.156394  
     392A      2.169910   393A      2.176143   394A      2.186473  
     395A      2.205057   396A      2.213890   397A      2.220380  
     398A      2.231534   399A      2.238526   400A      2.253716  
     401A      2.280491   402A      2.297572   403A      2.307891  
     404A      2.318541   405A      2.321861   406A      2.334973  
     407A      2.342093   408A      2.346849   409A      2.353025  
     410A      2.360996   411A      2.376028   412A      2.413626  
     413A      2.436347   414A      2.442628   415A      2.449047  
     416A      2.464166   417A      2.505076   418A      2.511589  
     419A      2.534642   420A      2.544067   421A      2.598294  
     422A      2.604646   423A      2.622458   424A      2.656759  
     425A      2.675465   426A      2.681894   427A      2.695046  
     428A      2.703180   429A      2.718107   430A      2.730905  
     431A      2.743994   432A      2.758701   433A      2.813034  
     434A      2.866254   435A      2.901648   436A      2.965484  
     437A      2.989113   438A      3.031767   439A      3.052805  
     440A      3.122508   441A      3.171854   442A      3.216628  
     443A      3.386010   444A      3.400782   445A      3.402605  
     446A      3.429733   447A      3.460924   448A      3.474324  
     449A      3.481094   450A      3.495665   451A      3.516809  
     452A      3.523264   453A      3.544908   454A      3.578900  
     455A      3.596606   456A      3.610159   457A      3.635574  
     458A      3.721410   459A      3.728776   460A      3.773054  
     461A      3.836261   462A      3.882637   463A      3.902315  
     464A      4.020901   465A      4.060673   466A      4.489707  
     467A      4.629998   468A      4.674955   469A      4.717352  
     470A      4.728655   471A      4.754251   472A      4.770105  
     473A      4.798351   474A      4.827481   475A      4.886845  
     476A      4.910469  

    Final Occupation by Irrep:
              A 
    DOCC [    67 ]

  @DF-RKS Final Energy: -1264.63524242990138

   => Energetics <=

    Nuclear Repulsion Energy =           1346.2210728449374528
    One-Electron Energy =               -4412.0762781653074853
    Two-Electron Energy =                1897.2555010484816194
    DFT Exchange-Correlation Energy =     -96.0188536786010900
    Empirical Dispersion Energy =          -0.0166844794118203
    VV10 Nonlocal Energy =                  0.0000000000000000
    Total Energy =                      -1264.6352424299016093

Computation Completed


Properties will be evaluated at   0.000000,   0.000000,  -0.000000 [a0]

Properties computed using the SCF density matrix

  Nuclear Dipole Moment: [e a0]
     X:    19.8237      Y:    -1.0373      Z:    -7.7631

  Electronic Dipole Moment: [e a0]
     X:   -17.9143      Y:     1.0505      Z:     7.1100

  Dipole Moment: [e a0]
     X:     1.9095      Y:     0.0132      Z:    -0.6531     Total:     2.0181

  Dipole Moment: [D]
     X:     4.8534      Y:     0.0336      Z:    -1.6600     Total:     5.1296


*** tstop() called on cpu-spot-dy-c5n2xlarge-1 at Tue Jun 22 16:55:45 2021
Module time:
	user time   =     947.12 seconds =      15.79 minutes
	system time =       9.25 seconds =       0.15 minutes
	total time  =        129 seconds =       2.15 minutes
Total time:
	user time   =    3202.80 seconds =      53.38 minutes
	system time =      32.90 seconds =       0.55 minutes
	total time  =        435 seconds =       7.25 minutes

       N-Body: Complex Energy (fragments = (1, 2), basis = (1, 2): -1264.63524242990138)

   ==> N-Body: Counterpoise Corrected (CP) energies <==

   n-Body     Total Energy [Eh]       I.E. [kcal/mol]      Delta [kcal/mol]
        1    -1264.624791743558        0.000000000000        0.000000000000
        2    -1264.634233628341       -5.924872151489       -5.924872151489

   => Loading Basis Set <=

    Name: DEF2-SVP
    Role: ORBITAL
    Keyword: BASIS
    atoms 1             entry N          line   110 file /fsx/users/francis/anaconda3/envs/poltype-dev/share/psi4/basis/def2-svp.gbs 
    atoms 2-3, 6-12, 14 entry C          line    90 file /fsx/users/francis/anaconda3/envs/poltype-dev/share/psi4/basis/def2-svp.gbs 
    atoms 4-5           entry F          line   150 file /fsx/users/francis/anaconda3/envs/poltype-dev/share/psi4/basis/def2-svp.gbs 
    atoms 13            entry S          line   328 file /fsx/users/francis/anaconda3/envs/poltype-dev/share/psi4/basis/def2-svp.gbs 
    atoms 15-16, 24     entry O          line   130 file /fsx/users/francis/anaconda3/envs/poltype-dev/share/psi4/basis/def2-svp.gbs 
    atoms 17-23, 25-26  entry H          line    15 file /fsx/users/francis/anaconda3/envs/poltype-dev/share/psi4/basis/def2-svp.gbs 

CP Energy =  -0.009442
    Psi4 stopped on: Tuesday, 22 June 2021 04:55PM
    Psi4 wall time for execution: 0:07:15.33

*** Psi4 exiting successfully. Buy a developer a beer!
