
    -----------------------------------------------------------------------
          Psi4: An Open-Source Ab Initio Electronic Structure Package
                               Psi4 1.3.2 release

                         Git: Rev {HEAD} ecbda83 


    R. M. Parrish, L. A. Burns, D. G. A. Smith, A. C. Simmonett,
    A. E. DePrince III, E. G. Hohenstein, U. Bozkaya, A. Yu. Sokolov,
    R. Di Remigio, R. M. Richard, J. F. Gonthier, A. M. James,
    H. R. McAlexander, A. Kumar, M. Saitow, X. Wang, B. P. Pritchard,
    P. Verma, H. F. Schaefer III, K. Patkowski, R. A. King, E. F. Valeev,
    F. A. Evangelista, J. M. Turney, T. D. Crawford, and C. D. Sherrill,
    J. Chem. Theory Comput. 13(7) pp 3185--3197 (2017).
    (doi: 10.1021/acs.jctc.7b00174)


                         Additional Contributions by
    P. Kraus, H. Kruse, M. H. Lechner, M. C. Schieber, R. A. Shaw,
    A. Alenaizan, R. Galvelis, Z. L. Glick, S. Lehtola, and J. P. Misiewicz

    -----------------------------------------------------------------------


    Psi4 started on: Tuesday, 22 June 2021 03:26PM

    Process ID: 21274
    Host:       cpu-spot-dy-c5n2xlarge-1
    PSIDATADIR: /fsx/users/francis/anaconda3/envs/poltype-dev/share/psi4
    Memory:     500.0 MiB
    Threads:    1
    
  ==> Input File <==

--------------------------------------------------------------------------
molecule { 
0 1
  N                 -0.8260030    -1.3282960    -0.0779940
  C                 -2.1092650    -1.0544570     0.3197650
  C                 -2.3948000     0.4430980     0.6653630
  F                 -3.6960120     0.7506790     0.3113310
  F                 -2.3114660     0.5636400     2.0338450
  C                 -1.4159460     1.4949620     0.0354070
  C                 -0.0748680     0.9990970    -0.3561590
  C                  0.9166740     1.8984060    -0.8047210
  C                  2.1915510     1.4433670    -1.1643410
  C                  2.4959700     0.0584930    -1.1092430
  C                  1.4871680    -0.8493330    -0.7206960
  C                  0.2051270    -0.3977250    -0.3635390
  S                  4.0705370    -0.6284060    -1.5292630
  C                  5.0499670    -0.3926990    -0.0252100
  O                 -2.9367190    -1.9487370     0.4345980
  O                 -1.7231300     2.6833150    -0.0299150
  H                  2.9370610     2.1736930    -1.4774200
  H                  0.6671740     2.9585660    -0.8554840
  H                 -0.6730600    -2.3132220    -0.2442190
  H                  1.7086540    -1.9167780    -0.6859390
  H                  5.1799690     0.6784470     0.1577010
  H                  4.5314840    -0.8522290     0.8222450
  H                  6.0275000    -0.8654740    -0.1593070
--
0 1
  O                 -2.5109326     0.2924241    -2.0912413
  H                 -3.3431156     0.1069021    -1.6506403
  H                 -2.6141856     1.1043841    -2.5905633
}
memory 16GB
set_num_threads(8)
psi4_io.set_default_path("/scratch/Psi4-ligand")
set maxiter 500
set freeze_core True
set PROPERTIES_ORIGIN ["COM"]
e_dim= energy('wb97x-d/aug-cc-pVDZ',bsse_type='cp')

psi4.print_out('CP Energy = %10.6f' % (e_dim))
clean()
--------------------------------------------------------------------------

  Memory set to  14.901 GiB by Python driver.
  Threads set to 8 by Python driver.


   ===> N-Body Interaction Abacus <===
        BSSE Treatment:                     cp
        Number of 1-body computations:     4
        Number of 2-body computations:     1

   ==> N-Body: Now computing 1-body complexes <==


       N-Body: Computing complex (1/4) with fragments (2,) in the basis of fragments (2,).


*** tstart() called on cpu-spot-dy-c5n2xlarge-1
*** at Tue Jun 22 15:26:56 2021

   => Loading Basis Set <=

    Name: AUG-CC-PVDZ
    Role: ORBITAL
    Keyword: BASIS
    atoms 1   entry O          line   250 file /fsx/users/francis/anaconda3/envs/poltype-dev/share/psi4/basis/aug-cc-pvdz.gbs 
    atoms 2-3 entry H          line    36 file /fsx/users/francis/anaconda3/envs/poltype-dev/share/psi4/basis/aug-cc-pvdz.gbs 


         ---------------------------------------------------------
                                   SCF
               by Justin Turney, Rob Parrish, Andy Simmonett
                          and Daniel G. A. Smith
                              RKS Reference
                        8 Threads,  15258 MiB Core
         ---------------------------------------------------------

  ==> Geometry <==

    Molecular point group: c1
    Full point group: C1

    Geometry (in Angstrom), charge = 0, multiplicity = 1:

       Center              X                  Y                   Z               Mass       
    ------------   -----------------  -----------------  -----------------  -----------------
         O           -2.436234057041     0.110426505142    -1.779304241130    15.994914619570
         H           -3.268417057041    -0.075095494858    -1.338703241130     1.007825032230
         H           -2.539487057041     0.922386505142    -2.278626241130     1.007825032230

  Running in c1 symmetry.

  Rotational constants: A =     11.39722  B =      0.09933  C =      0.09877 [cm^-1]
  Rotational constants: A = 341680.04542  B =   2977.71059  C =   2961.14412 [MHz]
  Nuclear repulsion =    9.167366184303617

  Charge       = 0
  Multiplicity = 1
  Electrons    = 10
  Nalpha       = 5
  Nbeta        = 5

  ==> Algorithm <==

  SCF Algorithm Type is DF.
  DIIS enabled.
  MOM disabled.
  Fractional occupation disabled.
  Guess Type is SAD.
  Energy threshold   = 1.00e-06
  Density threshold  = 1.00e-06
  Integral threshold = 0.00e+00

  ==> Primary Basis <==

  Basis Set: AUG-CC-PVDZ
    Blend: AUG-CC-PVDZ
    Number of shells: 19
    Number of basis function: 41
    Number of Cartesian functions: 43
    Spherical Harmonics?: true
    Max angular momentum: 2

  ==> DFT Potential <==

   => Composite Functional: WB97X-D <= 

    wB97X-D Hyb-GGA Exchange-Correlation Functional

    J.-D. Chai and M. Head-Gordon, Phys. Chem. Chem. Phys. 10, 6615 (2008)

    Deriv               =              1
    GGA                 =           TRUE
    Meta                =          FALSE

    Exchange Hybrid     =           TRUE
    MP2 Hybrid          =          FALSE

   => Exchange-Correlation Functionals <=

    1.0000   wB97D range-separated functional

   => Exact (HF) Exchange <=

    0.7780            HF,LR [omega = 0.2000]
    0.2220               HF 

   => Molecular Quadrature <=

    Radial Scheme          =       TREUTLER
    Pruning Scheme         =           FLAT
    Nuclear Scheme         =       TREUTLER

    BS radius alpha        =              1
    Pruning alpha          =              1
    Radial Points          =             75
    Spherical Points       =            302
    Total Points           =          67950
    Total Blocks           =            563
    Max Points             =            255
    Max Functions          =             41

   => WB97X-D: Empirical Dispersion <=

    Chai and Head-Gordon Dispersion Correction
    Chai, J.-D.; Head-Gordon, M. (2010), J. Chem. Phys., 132: 6615-6620

        s6 =       1.000000

   => Loading Basis Set <=

    Name: (AUG-CC-PVDZ AUX)
    Role: JKFIT
    Keyword: DF_BASIS_SCF
    atoms 1   entry O          line   270 file /fsx/users/francis/anaconda3/envs/poltype-dev/share/psi4/basis/aug-cc-pvdz-jkfit.gbs 
    atoms 2-3 entry H          line    70 file /fsx/users/francis/anaconda3/envs/poltype-dev/share/psi4/basis/aug-cc-pvdz-jkfit.gbs 

  ==> Pre-Iterations <==

   -------------------------------------------------------
    Irrep   Nso     Nmo     Nalpha   Nbeta   Ndocc  Nsocc
   -------------------------------------------------------
     A         41      41       0       0       0       0
   -------------------------------------------------------
    Total      41      41       5       5       5       0
   -------------------------------------------------------

  ==> Integral Setup <==

  ==> DiskDFJK: Density-Fitted J/K Matrices <==

    J tasked:                  Yes
    K tasked:                  Yes
    wK tasked:                 Yes
    Omega:               2.000E-01
    OpenMP threads:              8
    Integrals threads:           8
    Memory [MiB]:            11363
    Algorithm:                Core
    Integral Cache:           NONE
    Schwarz Cutoff:          1E-12
    Fitting Condition:       1E-10

   => Auxiliary Basis Set <=

  Basis Set: (AUG-CC-PVDZ AUX)
    Blend: AUG-CC-PVDZ-JKFIT
    Number of shells: 52
    Number of basis function: 150
    Number of Cartesian functions: 171
    Spherical Harmonics?: true
    Max angular momentum: 3

  Cached 100.0% of DFT collocation blocks in 0.079 [GiB].

  Minimum eigenvalue in the overlap matrix is 2.8222225555E-03.
  Using Symmetric Orthogonalization.

  SCF Guess: Superposition of Atomic Densities via on-the-fly atomic UHF.

  ==> Iterations <==

                           Total Energy        Delta E     RMS |[F,P]|

   @DF-RKS iter SAD:   -75.95315451255307   -7.59532e+01   0.00000e+00 
   @DF-RKS iter   1:   -76.27475286113879   -3.21598e-01   1.51058e-02 DIIS
   @DF-RKS iter   2:   -76.22812739620305    4.66255e-02   1.77952e-02 DIIS
   @DF-RKS iter   3:   -76.41935021546358   -1.91223e-01   3.63791e-04 DIIS
   @DF-RKS iter   4:   -76.41949533642847   -1.45121e-04   9.79930e-05 DIIS
   @DF-RKS iter   5:   -76.41950319251700   -7.85609e-06   1.86450e-05 DIIS
   @DF-RKS iter   6:   -76.41950351834113   -3.25824e-07   2.02575e-06 DIIS
   @DF-RKS iter   7:   -76.41950352901308   -1.06720e-08   2.55592e-07 DIIS
  Energy and wave function converged.


  ==> Post-Iterations <==

    Orbital Energies [Eh]
    ---------------------

    Doubly Occupied:                                                      

       1A    -19.278258     2A     -1.119582     3A     -0.632236  
       4A     -0.478383     5A     -0.406728  

    Virtual:                                                              

       6A      0.034031     7A      0.060939     8A      0.162157  
       9A      0.190770    10A      0.199463    11A      0.217675  
      12A      0.255761    13A      0.301579    14A      0.361947  
      15A      0.378393    16A      0.408262    17A      0.518074  
      18A      0.580158    19A      0.603686    20A      0.717227  
      21A      0.809446    22A      0.980342    23A      0.991834  
      24A      1.034585    25A      1.175244    26A      1.289338  
      27A      1.315617    28A      1.397269    29A      1.817798  
      30A      1.850908    31A      1.920118    32A      2.227754  
      33A      2.233715    34A      2.376438    35A      2.498086  
      36A      2.710331    37A      3.372515    38A      3.384428  
      39A      3.402589    40A      3.738322    41A      3.968852  

    Final Occupation by Irrep:
              A 
    DOCC [     5 ]

  @DF-RKS Final Energy:   -76.41950352901308

   => Energetics <=

    Nuclear Repulsion Energy =              9.1673661843036172
    One-Electron Energy =                -122.9491953758865321
    Two-Electron Energy =                  43.8350989357207794
    DFT Exchange-Correlation Energy =      -6.4727423762097178
    Empirical Dispersion Energy =          -0.0000308969412346
    VV10 Nonlocal Energy =                  0.0000000000000000
    Total Energy =                        -76.4195035290130988

Computation Completed


Properties will be evaluated at  -4.702732,   0.274918,  -3.368607 [a0]

Properties computed using the SCF density matrix

  Nuclear Dipole Moment: [e a0]
     X:    -0.7785      Y:     0.5214      Z:    -0.0489

  Electronic Dipole Moment: [e a0]
     X:     0.1797      Y:    -0.1202      Z:     0.0112

  Dipole Moment: [e a0]
     X:    -0.5989      Y:     0.4012      Z:    -0.0377     Total:     0.7218

  Dipole Moment: [D]
     X:    -1.5222      Y:     1.0198      Z:    -0.0958     Total:     1.8347


*** tstop() called on cpu-spot-dy-c5n2xlarge-1 at Tue Jun 22 15:26:57 2021
Module time:
	user time   =       8.35 seconds =       0.14 minutes
	system time =       0.22 seconds =       0.00 minutes
	total time  =          1 seconds =       0.02 minutes
Total time:
	user time   =       8.35 seconds =       0.14 minutes
	system time =       0.22 seconds =       0.00 minutes
	total time  =          1 seconds =       0.02 minutes

       N-Body: Complex Energy (fragments = (2,), basis = (2,):   -76.41950352901308)

       N-Body: Computing complex (2/4) with fragments (2,) in the basis of fragments (1, 2).


*** tstart() called on cpu-spot-dy-c5n2xlarge-1
*** at Tue Jun 22 15:26:57 2021

   => Loading Basis Set <=

    Name: AUG-CC-PVDZ
    Role: ORBITAL
    Keyword: BASIS
    atoms 1             entry N          line   214 file /fsx/users/francis/anaconda3/envs/poltype-dev/share/psi4/basis/aug-cc-pvdz.gbs 
    atoms 2-3, 6-12, 14 entry C          line   178 file /fsx/users/francis/anaconda3/envs/poltype-dev/share/psi4/basis/aug-cc-pvdz.gbs 
    atoms 4-5           entry F          line   286 file /fsx/users/francis/anaconda3/envs/poltype-dev/share/psi4/basis/aug-cc-pvdz.gbs 
    atoms 13            entry S          line   698 file /fsx/users/francis/anaconda3/envs/poltype-dev/share/psi4/basis/aug-cc-pvdz.gbs 
    atoms 15-16, 24     entry O          line   250 file /fsx/users/francis/anaconda3/envs/poltype-dev/share/psi4/basis/aug-cc-pvdz.gbs 
    atoms 17-23, 25-26  entry H          line    36 file /fsx/users/francis/anaconda3/envs/poltype-dev/share/psi4/basis/aug-cc-pvdz.gbs 


         ---------------------------------------------------------
                                   SCF
               by Justin Turney, Rob Parrish, Andy Simmonett
                          and Daniel G. A. Smith
                              RKS Reference
                        8 Threads,  15258 MiB Core
         ---------------------------------------------------------

  ==> Geometry <==

    Molecular point group: c1
    Full point group: C1

    Geometry (in Angstrom), charge = 0, multiplicity = 1:

       Center              X                  Y                   Z               Mass       
    ------------   -----------------  -----------------  -----------------  -----------------
      Gh(N)          -0.751304457041    -1.510293594858     0.233943058870    14.003074004430
      Gh(C)          -2.034566457041    -1.236454594858     0.631702058870    12.000000000000
      Gh(C)          -2.320101457041     0.261100405142     0.977300058870    12.000000000000
      Gh(F)          -3.621313457041     0.568681405142     0.623268058870    18.998403162730
      Gh(F)          -2.236767457041     0.381642405142     2.345782058870    18.998403162730
      Gh(C)          -1.341247457041     1.312964405142     0.347344058870    12.000000000000
      Gh(C)          -0.000169457041     0.817099405142    -0.044221941130    12.000000000000
      Gh(C)           0.991372542959     1.716408405142    -0.492783941130    12.000000000000
      Gh(C)           2.266249542959     1.261369405142    -0.852403941130    12.000000000000
      Gh(C)           2.570668542959    -0.123504594858    -0.797305941130    12.000000000000
      Gh(C)           1.561866542959    -1.031330594858    -0.408758941130    12.000000000000
      Gh(C)           0.279825542959    -0.579722594858    -0.051601941130    12.000000000000
      Gh(S)           4.145235542959    -0.810403594858    -1.217325941130    31.972071174400
      Gh(C)           5.124665542959    -0.574696594858     0.286727058870    12.000000000000
      Gh(O)          -2.862020457041    -2.130734594858     0.746535058870    15.994914619570
      Gh(O)          -1.648431457041     2.501317405142     0.282022058870    15.994914619570
      Gh(H)           3.011759542959     1.991695405142    -1.165482941130     1.007825032230
      Gh(H)           0.741872542959     2.776568405142    -0.543546941130     1.007825032230
      Gh(H)          -0.598361457041    -2.495219594858     0.067718058870     1.007825032230
      Gh(H)           1.783352542959    -2.098775594858    -0.374001941130     1.007825032230
      Gh(H)           5.254667542959     0.496449405142     0.469638058870     1.007825032230
      Gh(H)           4.606182542959    -1.034226594858     1.134182058870     1.007825032230
      Gh(H)           6.102198542959    -1.047471594858     0.152630058870     1.007825032230
         O           -2.436234057041     0.110426505142    -1.779304241130    15.994914619570
         H           -3.268417057041    -0.075095494858    -1.338703241130     1.007825032230
         H           -2.539487057041     0.922386505142    -2.278626241130     1.007825032230

  Running in c1 symmetry.

  Rotational constants: A =      0.02950  B =      0.00766  C =      0.00708 [cm^-1]
  Rotational constants: A =    884.42006  B =    229.58185  C =    212.20382 [MHz]
  Nuclear repulsion =    9.167366184303617

  Charge       = 0
  Multiplicity = 1
  Electrons    = 10
  Nalpha       = 5
  Nbeta        = 5

  ==> Algorithm <==

  SCF Algorithm Type is DF.
  DIIS enabled.
  MOM disabled.
  Fractional occupation disabled.
  Guess Type is SAD.
  Energy threshold   = 1.00e-06
  Density threshold  = 1.00e-06
  Integral threshold = 0.00e+00

  ==> Primary Basis <==

  Basis Set: AUG-CC-PVDZ
    Blend: AUG-CC-PVDZ
    Number of shells: 200
    Number of basis function: 476
    Number of Cartesian functions: 510
    Spherical Harmonics?: true
    Max angular momentum: 2

  ==> DFT Potential <==

   => Composite Functional: WB97X-D <= 

    wB97X-D Hyb-GGA Exchange-Correlation Functional

    J.-D. Chai and M. Head-Gordon, Phys. Chem. Chem. Phys. 10, 6615 (2008)

    Deriv               =              1
    GGA                 =           TRUE
    Meta                =          FALSE

    Exchange Hybrid     =           TRUE
    MP2 Hybrid          =          FALSE

   => Exchange-Correlation Functionals <=

    1.0000   wB97D range-separated functional

   => Exact (HF) Exchange <=

    0.7780            HF,LR [omega = 0.2000]
    0.2220               HF 

   => Molecular Quadrature <=

    Radial Scheme          =       TREUTLER
    Pruning Scheme         =           FLAT
    Nuclear Scheme         =       TREUTLER

    BS radius alpha        =              1
    Pruning alpha          =              1
    Radial Points          =             75
    Spherical Points       =            302
    Total Points           =         588900
    Total Blocks           =           4343
    Max Points             =            256
    Max Functions          =            432

   => WB97X-D: Empirical Dispersion <=

    Chai and Head-Gordon Dispersion Correction
    Chai, J.-D.; Head-Gordon, M. (2010), J. Chem. Phys., 132: 6615-6620

        s6 =       1.000000

   => Loading Basis Set <=

    Name: (AUG-CC-PVDZ AUX)
    Role: JKFIT
    Keyword: DF_BASIS_SCF
    atoms 1             entry N          line   212 file /fsx/users/francis/anaconda3/envs/poltype-dev/share/psi4/basis/aug-cc-pvdz-jkfit.gbs 
    atoms 2-3, 6-12, 14 entry C          line   154 file /fsx/users/francis/anaconda3/envs/poltype-dev/share/psi4/basis/aug-cc-pvdz-jkfit.gbs 
    atoms 4-5           entry F          line   328 file /fsx/users/francis/anaconda3/envs/poltype-dev/share/psi4/basis/aug-cc-pvdz-jkfit.gbs 
    atoms 13            entry S          line   690 file /fsx/users/francis/anaconda3/envs/poltype-dev/share/psi4/basis/aug-cc-pvdz-jkfit.gbs 
    atoms 15-16, 24     entry O          line   270 file /fsx/users/francis/anaconda3/envs/poltype-dev/share/psi4/basis/aug-cc-pvdz-jkfit.gbs 
    atoms 17-23, 25-26  entry H          line    70 file /fsx/users/francis/anaconda3/envs/poltype-dev/share/psi4/basis/aug-cc-pvdz-jkfit.gbs 

  ==> Pre-Iterations <==

   -------------------------------------------------------
    Irrep   Nso     Nmo     Nalpha   Nbeta   Ndocc  Nsocc
   -------------------------------------------------------
     A        476     476       0       0       0       0
   -------------------------------------------------------
    Total     476     476       5       5       5       0
   -------------------------------------------------------

  ==> Integral Setup <==

  ==> DiskDFJK: Density-Fitted J/K Matrices <==

    J tasked:                  Yes
    K tasked:                  Yes
    wK tasked:                 Yes
    Omega:               2.000E-01
    OpenMP threads:              8
    Integrals threads:           8
    Memory [MiB]:             5808
    Algorithm:                Core
    Integral Cache:           NONE
    Schwarz Cutoff:          1E-12
    Fitting Condition:       1E-10

   => Auxiliary Basis Set <=

  Basis Set: (AUG-CC-PVDZ AUX)
    Blend: AUG-CC-PVDZ-JKFIT
    Number of shells: 596
    Number of basis function: 1792
    Number of Cartesian functions: 2081
    Spherical Harmonics?: true
    Max angular momentum: 3

  Cached 100.0% of DFT collocation blocks in 5.504 [GiB].

  Minimum eigenvalue in the overlap matrix is 1.4145912418E-06.
  Using Symmetric Orthogonalization.

  SCF Guess: Superposition of Atomic Densities via on-the-fly atomic UHF.

  ==> Iterations <==

                           Total Energy        Delta E     RMS |[F,P]|

   @DF-RKS iter SAD:   -75.95316356933139   -7.59532e+01   0.00000e+00 
   @DF-RKS iter   1:   -76.27557600056853   -3.22412e-01   1.30605e-03 DIIS
   @DF-RKS iter   2:   -76.22884917028776    4.67268e-02   1.53791e-03 DIIS
   @DF-RKS iter   3:   -76.42011457408567   -1.91265e-01   3.22131e-05 DIIS
   @DF-RKS iter   4:   -76.42027081676267   -1.56243e-04   8.99268e-06 DIIS
   @DF-RKS iter   5:   -76.42027966315831   -8.84640e-06   1.65093e-06 DIIS
   @DF-RKS iter   6:   -76.42028001478845   -3.51630e-07   1.88701e-07 DIIS
  Energy and wave function converged.


  ==> Post-Iterations <==

    Orbital Energies [Eh]
    ---------------------

    Doubly Occupied:                                                      

       1A    -19.278220     2A     -1.119304     3A     -0.631933  
       4A     -0.478027     5A     -0.406325  

    Virtual:                                                              

       6A      0.021331     7A      0.030355     8A      0.038020  
       9A      0.047708    10A      0.050360    11A      0.054227  
      12A      0.060611    13A      0.068981    14A      0.076360  
      15A      0.077804    16A      0.080994    17A      0.089712  
      18A      0.095282    19A      0.096923    20A      0.101920  
      21A      0.107235    22A      0.110594    23A      0.118222  
      24A      0.119222    25A      0.126362    26A      0.133165  
      27A      0.135458    28A      0.143151    29A      0.143877  
      30A      0.147363    31A      0.152400    32A      0.158105  
      33A      0.164272    34A      0.165831    35A      0.171936  
      36A      0.173360    37A      0.178049    38A      0.179995  
      39A      0.184002    40A      0.189371    41A      0.192866  
      42A      0.197764    43A      0.203975    44A      0.211791  
      45A      0.213155    46A      0.216723    47A      0.217898  
      48A      0.225668    49A      0.229123    50A      0.234506  
      51A      0.238266    52A      0.241282    53A      0.245396  
      54A      0.247298    55A      0.258470    56A      0.262959  
      57A      0.264217    58A      0.268201    59A      0.274409  
      60A      0.283732    61A      0.284332    62A      0.288184  
      63A      0.296290    64A      0.300857    65A      0.306462  
      66A      0.310840    67A      0.317167    68A      0.325442  
      69A      0.327585    70A      0.336169    71A      0.340346  
      72A      0.347481    73A      0.350814    74A      0.355974  
      75A      0.364382    76A      0.365868    77A      0.369831  
      78A      0.379239    79A      0.385956    80A      0.390060  
      81A      0.394485    82A      0.397397    83A      0.398819  
      84A      0.406220    85A      0.412037    86A      0.416541  
      87A      0.429795    88A      0.432191    89A      0.438202  
      90A      0.439752    91A      0.443014    92A      0.452744  
      93A      0.457010    94A      0.462067    95A      0.463185  
      96A      0.469871    97A      0.472732    98A      0.477089  
      99A      0.480848   100A      0.496066   101A      0.499070  
     102A      0.506973   103A      0.513109   104A      0.514101  
     105A      0.521353   106A      0.528911   107A      0.532103  
     108A      0.536448   109A      0.540047   110A      0.551608  
     111A      0.554932   112A      0.559260   113A      0.563355  
     114A      0.568524   115A      0.573084   116A      0.580674  
     117A      0.583980   118A      0.593077   119A      0.598043  
     120A      0.606573   121A      0.612820   122A      0.616888  
     123A      0.620727   124A      0.621957   125A      0.637329  
     126A      0.640006   127A      0.649680   128A      0.652050  
     129A      0.660305   130A      0.666119   131A      0.670296  
     132A      0.672696   133A      0.679009   134A      0.680358  
     135A      0.690607   136A      0.698254   137A      0.705659  
     138A      0.711932   139A      0.723163   140A      0.725844  
     141A      0.734989   142A      0.739684   143A      0.741630  
     144A      0.752536   145A      0.761196   146A      0.770542  
     147A      0.773686   148A      0.779972   149A      0.786994  
     150A      0.794587   151A      0.807863   152A      0.811683  
     153A      0.816093   154A      0.824256   155A      0.830219  
     156A      0.835368   157A      0.839699   158A      0.845552  
     159A      0.847610   160A      0.858787   161A      0.862860  
     162A      0.866640   163A      0.877597   164A      0.880079  
     165A      0.889217   166A      0.899589   167A      0.901559  
     168A      0.906076   169A      0.910601   170A      0.924231  
     171A      0.931774   172A      0.946187   173A      0.952833  
     174A      0.960792   175A      0.962552   176A      0.968121  
     177A      0.973544   178A      0.979479   179A      0.986980  
     180A      0.993929   181A      0.996917   182A      1.002604  
     183A      1.010445   184A      1.014966   185A      1.023523  
     186A      1.029360   187A      1.042100   188A      1.048079  
     189A      1.064419   190A      1.073719   191A      1.082134  
     192A      1.087903   193A      1.090641   194A      1.101194  
     195A      1.115789   196A      1.141009   197A      1.144878  
     198A      1.152332   199A      1.165049   200A      1.167511  
     201A      1.175035   202A      1.182791   203A      1.188720  
     204A      1.190129   205A      1.204104   206A      1.213216  
     207A      1.230567   208A      1.236580   209A      1.245821  
     210A      1.248249   211A      1.270190   212A      1.281594  
     213A      1.287045   214A      1.299243   215A      1.322200  
     216A      1.325253   217A      1.332238   218A      1.338258  
     219A      1.355818   220A      1.364280   221A      1.376237  
     222A      1.384398   223A      1.394789   224A      1.416328  
     225A      1.422606   226A      1.432116   227A      1.440680  
     228A      1.454558   229A      1.465464   230A      1.484281  
     231A      1.488954   232A      1.492420   233A      1.505127  
     234A      1.509054   235A      1.533287   236A      1.540564  
     237A      1.552573   238A      1.567164   239A      1.580734  
     240A      1.592864   241A      1.598581   242A      1.624283  
     243A      1.637408   244A      1.651831   245A      1.660283  
     246A      1.677491   247A      1.686387   248A      1.718483  
     249A      1.724045   250A      1.729059   251A      1.743724  
     252A      1.760184   253A      1.772504   254A      1.794410  
     255A      1.813543   256A      1.826025   257A      1.838122  
     258A      1.860772   259A      1.886460   260A      1.898762  
     261A      1.904763   262A      1.931453   263A      1.934364  
     264A      1.943032   265A      1.955892   266A      1.971093  
     267A      2.000316   268A      2.033254   269A      2.040749  
     270A      2.057685   271A      2.064928   272A      2.085630  
     273A      2.087155   274A      2.101286   275A      2.123936  
     276A      2.129585   277A      2.136941   278A      2.164830  
     279A      2.174150   280A      2.185133   281A      2.202461  
     282A      2.209674   283A      2.215548   284A      2.228928  
     285A      2.240736   286A      2.254625   287A      2.261781  
     288A      2.273085   289A      2.278329   290A      2.287086  
     291A      2.290589   292A      2.299325   293A      2.303767  
     294A      2.317367   295A      2.319848   296A      2.335869  
     297A      2.343597   298A      2.347862   299A      2.357564  
     300A      2.364268   301A      2.375157   302A      2.382144  
     303A      2.386807   304A      2.408132   305A      2.410107  
     306A      2.419240   307A      2.431205   308A      2.443264  
     309A      2.456597   310A      2.470862   311A      2.486296  
     312A      2.520941   313A      2.534744   314A      2.548555  
     315A      2.564563   316A      2.579576   317A      2.597793  
     318A      2.606359   319A      2.615878   320A      2.622650  
     321A      2.642341   322A      2.649225   323A      2.659581  
     324A      2.668025   325A      2.685946   326A      2.696653  
     327A      2.725976   328A      2.758890   329A      2.763290  
     330A      2.769672   331A      2.792822   332A      2.820156  
     333A      2.829198   334A      2.831419   335A      2.840390  
     336A      2.853680   337A      2.871009   338A      2.885269  
     339A      2.892153   340A      2.913484   341A      2.923762  
     342A      2.946772   343A      2.967205   344A      2.986881  
     345A      2.998909   346A      3.016139   347A      3.033587  
     348A      3.037200   349A      3.054166   350A      3.068672  
     351A      3.086516   352A      3.116368   353A      3.140101  
     354A      3.153119   355A      3.180952   356A      3.204418  
     357A      3.260729   358A      3.274639   359A      3.279370  
     360A      3.291915   361A      3.297146   362A      3.319859  
     363A      3.338032   364A      3.370409   365A      3.373220  
     366A      3.449527   367A      3.461807   368A      3.471368  
     369A      3.501434   370A      3.519646   371A      3.552968  
     372A      3.560888   373A      3.574618   374A      3.597887  
     375A      3.672854   376A      3.681065   377A      3.692601  
     378A      3.709770   379A      3.735463   380A      3.750151  
     381A      3.796215   382A      3.832254   383A      3.880001  
     384A      3.909900   385A      3.923348   386A      3.950361  
     387A      4.004460   388A      4.042432   389A      4.054881  
     390A      4.086858   391A      4.150333   392A      4.166911  
     393A      4.252176   394A      4.276519   395A      4.336415  
     396A      4.378264   397A      4.392360   398A      4.425858  
     399A      4.484778   400A      4.543723   401A      4.548117  
     402A      4.618101   403A      4.670430   404A      4.708704  
     405A      4.759573   406A      4.826142   407A      4.855931  
     408A      4.920232   409A      4.979979   410A      5.033186  
     411A      5.049538   412A      5.066705   413A      5.072141  
     414A      5.072502   415A      5.076808   416A      5.102558  
     417A      5.112082   418A      5.130803   419A      5.151651  
     420A      5.221379   421A      5.296654   422A      5.311211  
     423A      5.336966   424A      5.390479   425A      5.436454  
     426A      5.479291   427A      5.506882   428A      5.541629  
     429A      5.637950   430A      5.857391   431A      6.002313  
     432A      6.059499   433A      6.097863   434A      6.176928  
     435A      6.236664   436A      6.261777   437A      6.472352  
     438A      6.525199   439A      6.818792   440A      6.839486  
     441A      6.861511   442A      6.873504   443A      6.879195  
     444A      6.918889   445A      6.949987   446A      6.970738  
     447A      6.973003   448A      6.995893   449A      7.033524  
     450A      7.086329   451A      7.146112   452A      7.868330  
     453A      7.947507   454A      8.003885   455A      8.124456  
     456A      8.173629   457A      8.248633   458A     18.014532  
     459A     18.423742   460A     18.572990   461A     18.636366  
     462A     18.803428   463A     18.917065   464A     19.181832  
     465A     19.399006   466A     19.667423   467A     20.641260  
     468A     20.758525   469A     20.892947   470A     21.435591  
     471A     25.498215   472A     33.549742   473A     33.561157  
     474A     43.012099   475A     43.025962   476A    138.006893  

    Final Occupation by Irrep:
              A 
    DOCC [     5 ]

  @DF-RKS Final Energy:   -76.42028001478845

   => Energetics <=

    Nuclear Repulsion Energy =              9.1673661843036172
    One-Electron Energy =                -122.9530347344333308
    Two-Electron Energy =                  43.8386927681180509
    DFT Exchange-Correlation Energy =      -6.4732733358355494
    Empirical Dispersion Energy =          -0.0000308969412346
    VV10 Nonlocal Energy =                  0.0000000000000000
    Total Energy =                        -76.4202800147884460

Computation Completed


Properties will be evaluated at   0.000000,  -0.000000,   0.000000 [a0]

Properties computed using the SCF density matrix

  Nuclear Dipole Moment: [e a0]
     X:   -47.8059      Y:     3.2706      Z:   -33.7349

  Electronic Dipole Moment: [e a0]
     X:    47.2099      Y:    -2.8714      Z:    33.6988

  Dipole Moment: [e a0]
     X:    -0.5960      Y:     0.3991      Z:    -0.0361     Total:     0.7182

  Dipole Moment: [D]
     X:    -1.5148      Y:     1.0144      Z:    -0.0918     Total:     1.8254


*** tstop() called on cpu-spot-dy-c5n2xlarge-1 at Tue Jun 22 15:28:19 2021
Module time:
	user time   =     598.76 seconds =       9.98 minutes
	system time =       6.96 seconds =       0.12 minutes
	total time  =         82 seconds =       1.37 minutes
Total time:
	user time   =     607.18 seconds =      10.12 minutes
	system time =       7.18 seconds =       0.12 minutes
	total time  =         83 seconds =       1.38 minutes

       N-Body: Complex Energy (fragments = (2,), basis = (1, 2):   -76.42028001478845)

       N-Body: Computing complex (3/4) with fragments (1,) in the basis of fragments (1, 2).


*** tstart() called on cpu-spot-dy-c5n2xlarge-1
*** at Tue Jun 22 15:28:19 2021

   => Loading Basis Set <=

    Name: AUG-CC-PVDZ
    Role: ORBITAL
    Keyword: BASIS
    atoms 1             entry N          line   214 file /fsx/users/francis/anaconda3/envs/poltype-dev/share/psi4/basis/aug-cc-pvdz.gbs 
    atoms 2-3, 6-12, 14 entry C          line   178 file /fsx/users/francis/anaconda3/envs/poltype-dev/share/psi4/basis/aug-cc-pvdz.gbs 
    atoms 4-5           entry F          line   286 file /fsx/users/francis/anaconda3/envs/poltype-dev/share/psi4/basis/aug-cc-pvdz.gbs 
    atoms 13            entry S          line   698 file /fsx/users/francis/anaconda3/envs/poltype-dev/share/psi4/basis/aug-cc-pvdz.gbs 
    atoms 15-16, 24     entry O          line   250 file /fsx/users/francis/anaconda3/envs/poltype-dev/share/psi4/basis/aug-cc-pvdz.gbs 
    atoms 17-23, 25-26  entry H          line    36 file /fsx/users/francis/anaconda3/envs/poltype-dev/share/psi4/basis/aug-cc-pvdz.gbs 


         ---------------------------------------------------------
                                   SCF
               by Justin Turney, Rob Parrish, Andy Simmonett
                          and Daniel G. A. Smith
                              RKS Reference
                        8 Threads,  15258 MiB Core
         ---------------------------------------------------------

  ==> Geometry <==

    Molecular point group: c1
    Full point group: C1

    Geometry (in Angstrom), charge = 0, multiplicity = 1:

       Center              X                  Y                   Z               Mass       
    ------------   -----------------  -----------------  -----------------  -----------------
         N           -0.751304457041    -1.510293594858     0.233943058870    14.003074004430
         C           -2.034566457041    -1.236454594858     0.631702058870    12.000000000000
         C           -2.320101457041     0.261100405142     0.977300058870    12.000000000000
         F           -3.621313457041     0.568681405142     0.623268058870    18.998403162730
         F           -2.236767457041     0.381642405142     2.345782058870    18.998403162730
         C           -1.341247457041     1.312964405142     0.347344058870    12.000000000000
         C           -0.000169457041     0.817099405142    -0.044221941130    12.000000000000
         C            0.991372542959     1.716408405142    -0.492783941130    12.000000000000
         C            2.266249542959     1.261369405142    -0.852403941130    12.000000000000
         C            2.570668542959    -0.123504594858    -0.797305941130    12.000000000000
         C            1.561866542959    -1.031330594858    -0.408758941130    12.000000000000
         C            0.279825542959    -0.579722594858    -0.051601941130    12.000000000000
         S            4.145235542959    -0.810403594858    -1.217325941130    31.972071174400
         C            5.124665542959    -0.574696594858     0.286727058870    12.000000000000
         O           -2.862020457041    -2.130734594858     0.746535058870    15.994914619570
         O           -1.648431457041     2.501317405142     0.282022058870    15.994914619570
         H            3.011759542959     1.991695405142    -1.165482941130     1.007825032230
         H            0.741872542959     2.776568405142    -0.543546941130     1.007825032230
         H           -0.598361457041    -2.495219594858     0.067718058870     1.007825032230
         H            1.783352542959    -2.098775594858    -0.374001941130     1.007825032230
         H            5.254667542959     0.496449405142     0.469638058870     1.007825032230
         H            4.606182542959    -1.034226594858     1.134182058870     1.007825032230
         H            6.102198542959    -1.047471594858     0.152630058870     1.007825032230
      Gh(O)          -2.436234057041     0.110426505142    -1.779304241130    15.994914619570
      Gh(H)          -3.268417057041    -0.075095494858    -1.338703241130     1.007825032230
      Gh(H)          -2.539487057041     0.922386505142    -2.278626241130     1.007825032230

  Running in c1 symmetry.

  Rotational constants: A =      0.02950  B =      0.00766  C =      0.00708 [cm^-1]
  Rotational constants: A =    884.42006  B =    229.58185  C =    212.20382 [MHz]
  Nuclear repulsion = 1178.708683524845810

  Charge       = 0
  Multiplicity = 1
  Electrons    = 124
  Nalpha       = 62
  Nbeta        = 62

  ==> Algorithm <==

  SCF Algorithm Type is DF.
  DIIS enabled.
  MOM disabled.
  Fractional occupation disabled.
  Guess Type is SAD.
  Energy threshold   = 1.00e-06
  Density threshold  = 1.00e-06
  Integral threshold = 0.00e+00

  ==> Primary Basis <==

  Basis Set: AUG-CC-PVDZ
    Blend: AUG-CC-PVDZ
    Number of shells: 200
    Number of basis function: 476
    Number of Cartesian functions: 510
    Spherical Harmonics?: true
    Max angular momentum: 2

  ==> DFT Potential <==

   => Composite Functional: WB97X-D <= 

    wB97X-D Hyb-GGA Exchange-Correlation Functional

    J.-D. Chai and M. Head-Gordon, Phys. Chem. Chem. Phys. 10, 6615 (2008)

    Deriv               =              1
    GGA                 =           TRUE
    Meta                =          FALSE

    Exchange Hybrid     =           TRUE
    MP2 Hybrid          =          FALSE

   => Exchange-Correlation Functionals <=

    1.0000   wB97D range-separated functional

   => Exact (HF) Exchange <=

    0.7780            HF,LR [omega = 0.2000]
    0.2220               HF 

   => Molecular Quadrature <=

    Radial Scheme          =       TREUTLER
    Pruning Scheme         =           FLAT
    Nuclear Scheme         =       TREUTLER

    BS radius alpha        =              1
    Pruning alpha          =              1
    Radial Points          =             75
    Spherical Points       =            302
    Total Points           =         588900
    Total Blocks           =           4343
    Max Points             =            256
    Max Functions          =            432

   => WB97X-D: Empirical Dispersion <=

    Chai and Head-Gordon Dispersion Correction
    Chai, J.-D.; Head-Gordon, M. (2010), J. Chem. Phys., 132: 6615-6620

        s6 =       1.000000

   => Loading Basis Set <=

    Name: (AUG-CC-PVDZ AUX)
    Role: JKFIT
    Keyword: DF_BASIS_SCF
    atoms 1             entry N          line   212 file /fsx/users/francis/anaconda3/envs/poltype-dev/share/psi4/basis/aug-cc-pvdz-jkfit.gbs 
    atoms 2-3, 6-12, 14 entry C          line   154 file /fsx/users/francis/anaconda3/envs/poltype-dev/share/psi4/basis/aug-cc-pvdz-jkfit.gbs 
    atoms 4-5           entry F          line   328 file /fsx/users/francis/anaconda3/envs/poltype-dev/share/psi4/basis/aug-cc-pvdz-jkfit.gbs 
    atoms 13            entry S          line   690 file /fsx/users/francis/anaconda3/envs/poltype-dev/share/psi4/basis/aug-cc-pvdz-jkfit.gbs 
    atoms 15-16, 24     entry O          line   270 file /fsx/users/francis/anaconda3/envs/poltype-dev/share/psi4/basis/aug-cc-pvdz-jkfit.gbs 
    atoms 17-23, 25-26  entry H          line    70 file /fsx/users/francis/anaconda3/envs/poltype-dev/share/psi4/basis/aug-cc-pvdz-jkfit.gbs 

  ==> Pre-Iterations <==

   -------------------------------------------------------
    Irrep   Nso     Nmo     Nalpha   Nbeta   Ndocc  Nsocc
   -------------------------------------------------------
     A        476     476       0       0       0       0
   -------------------------------------------------------
    Total     476     476      62      62      62       0
   -------------------------------------------------------

  ==> Integral Setup <==

  ==> DiskDFJK: Density-Fitted J/K Matrices <==

    J tasked:                  Yes
    K tasked:                  Yes
    wK tasked:                 Yes
    Omega:               2.000E-01
    OpenMP threads:              8
    Integrals threads:           8
    Memory [MiB]:             5808
    Algorithm:                Core
    Integral Cache:           NONE
    Schwarz Cutoff:          1E-12
    Fitting Condition:       1E-10

   => Auxiliary Basis Set <=

  Basis Set: (AUG-CC-PVDZ AUX)
    Blend: AUG-CC-PVDZ-JKFIT
    Number of shells: 596
    Number of basis function: 1792
    Number of Cartesian functions: 2081
    Spherical Harmonics?: true
    Max angular momentum: 3

  Cached 100.0% of DFT collocation blocks in 5.504 [GiB].

  Minimum eigenvalue in the overlap matrix is 1.4145912418E-06.
  Using Symmetric Orthogonalization.

  SCF Guess: Superposition of Atomic Densities via on-the-fly atomic UHF.

  ==> Iterations <==

                           Total Energy        Delta E     RMS |[F,P]|

   @DF-RKS iter SAD: -1187.39117347651973   -1.18739e+03   0.00000e+00 
   @DF-RKS iter   1: -1187.69204770318493   -3.00874e-01   2.21200e-03 DIIS
   @DF-RKS iter   2: -1187.70055503821686   -8.50734e-03   2.40322e-03 DIIS
   @DF-RKS iter   3: -1188.17541553179285   -4.74860e-01   5.67424e-04 DIIS
   @DF-RKS iter   4: -1188.20374849033169   -2.83330e-02   1.48286e-04 DIIS
   @DF-RKS iter   5: -1188.20594599815649   -2.19751e-03   4.24625e-05 DIIS
   @DF-RKS iter   6: -1188.20616852472540   -2.22527e-04   1.44559e-05 DIIS
   @DF-RKS iter   7: -1188.20619454810253   -2.60234e-05   4.46676e-06 DIIS
   @DF-RKS iter   8: -1188.20619939879134   -4.85069e-06   1.64193e-06 DIIS
   @DF-RKS iter   9: -1188.20620056651433   -1.16772e-06   1.05833e-06 DIIS
   @DF-RKS iter  10: -1188.20620080938625   -2.42872e-07   3.73133e-07 DIIS
  Energy and wave function converged.


  ==> Post-Iterations <==

    Orbital Energies [Eh]
    ---------------------

    Doubly Occupied:                                                      

       1A    -89.069930     2A    -24.879302     3A    -24.867645  
       4A    -19.304493     5A    -19.288428     6A    -14.536749  
       7A    -10.508724     8A    -10.455440     9A    -10.436536  
      10A    -10.407927    11A    -10.379025    12A    -10.356842  
      13A    -10.352297    14A    -10.350136    15A    -10.345755  
      16A    -10.343986    17A     -8.087423    18A     -6.037298  
      19A     -6.033165    20A     -6.026197    21A     -1.384951  
      22A     -1.325923    23A     -1.190213    24A     -1.180133  
      25A     -1.094030    26A     -1.000621    27A     -0.938544  
      28A     -0.903844    29A     -0.888696    30A     -0.866675  
      31A     -0.792578    32A     -0.765676    33A     -0.752202  
      34A     -0.739997    35A     -0.695741    36A     -0.677701  
      37A     -0.667690    38A     -0.643402    39A     -0.628822  
      40A     -0.591240    41A     -0.579868    42A     -0.568747  
      43A     -0.562881    44A     -0.557521    45A     -0.555207  
      46A     -0.548383    47A     -0.539082    48A     -0.533815  
      49A     -0.527262    50A     -0.515752    51A     -0.511972  
      52A     -0.500605    53A     -0.494243    54A     -0.480517  
      55A     -0.474185    56A     -0.441270    57A     -0.420602  
      58A     -0.398152    59A     -0.371745    60A     -0.368177  
      61A     -0.340492    62A     -0.332512  

    Virtual:                                                              

      63A     -0.057178    64A      0.006777    65A      0.023793  
      66A      0.032203    67A      0.036126    68A      0.039990  
      69A      0.048935    70A      0.051792    71A      0.058243  
      72A      0.060615    73A      0.065601    74A      0.075234  
      75A      0.076556    76A      0.082141    77A      0.090560  
      78A      0.094522    79A      0.100202    80A      0.106095  
      81A      0.107067    82A      0.112882    83A      0.116717  
      84A      0.119205    85A      0.123481    86A      0.127474  
      87A      0.131356    88A      0.132685    89A      0.135866  
      90A      0.143669    91A      0.146248    92A      0.150004  
      93A      0.153258    94A      0.156247    95A      0.164225  
      96A      0.166357    97A      0.168571    98A      0.170081  
      99A      0.174934   100A      0.177962   101A      0.178619  
     102A      0.182287   103A      0.188060   104A      0.195437  
     105A      0.198854   106A      0.201432   107A      0.206777  
     108A      0.210888   109A      0.215060   110A      0.218188  
     111A      0.223962   112A      0.230522   113A      0.233336  
     114A      0.234268   115A      0.239471   116A      0.242217  
     117A      0.243973   118A      0.250947   119A      0.255534  
     120A      0.258900   121A      0.260898   122A      0.263274  
     123A      0.270486   124A      0.275400   125A      0.276622  
     126A      0.279667   127A      0.282915   128A      0.286246  
     129A      0.287230   130A      0.289140   131A      0.294369  
     132A      0.299905   133A      0.306124   134A      0.310316  
     135A      0.312671   136A      0.317792   137A      0.320506  
     138A      0.326229   139A      0.331380   140A      0.338089  
     141A      0.342631   142A      0.344889   143A      0.347747  
     144A      0.348803   145A      0.360569   146A      0.361907  
     147A      0.366670   148A      0.370574   149A      0.372028  
     150A      0.378794   151A      0.382014   152A      0.384962  
     153A      0.386723   154A      0.390193   155A      0.397958  
     156A      0.403649   157A      0.411125   158A      0.411453  
     159A      0.416058   160A      0.420746   161A      0.427115  
     162A      0.430619   163A      0.436228   164A      0.443083  
     165A      0.445340   166A      0.449601   167A      0.458169  
     168A      0.467733   169A      0.471075   170A      0.477314  
     171A      0.482228   172A      0.488335   173A      0.490792  
     174A      0.494997   175A      0.501819   176A      0.502264  
     177A      0.508719   178A      0.510912   179A      0.522386  
     180A      0.524553   181A      0.526630   182A      0.530127  
     183A      0.540063   184A      0.541655   185A      0.544471  
     186A      0.550731   187A      0.554645   188A      0.563090  
     189A      0.568414   190A      0.575432   191A      0.577721  
     192A      0.582642   193A      0.592086   194A      0.596521  
     195A      0.603889   196A      0.607125   197A      0.612551  
     198A      0.613881   199A      0.623059   200A      0.625914  
     201A      0.631113   202A      0.634828   203A      0.640282  
     204A      0.643540   205A      0.646422   206A      0.653266  
     207A      0.657021   208A      0.661405   209A      0.668359  
     210A      0.670828   211A      0.676517   212A      0.681513  
     213A      0.683187   214A      0.697825   215A      0.698138  
     216A      0.703848   217A      0.708072   218A      0.710374  
     219A      0.712238   220A      0.720860   221A      0.724119  
     222A      0.738655   223A      0.751223   224A      0.756739  
     225A      0.760672   226A      0.763525   227A      0.768345  
     228A      0.782572   229A      0.784942   230A      0.787620  
     231A      0.798212   232A      0.807377   233A      0.809686  
     234A      0.813952   235A      0.823424   236A      0.827759  
     237A      0.833802   238A      0.837527   239A      0.841436  
     240A      0.851165   241A      0.853286   242A      0.859380  
     243A      0.865564   244A      0.878032   245A      0.885643  
     246A      0.888850   247A      0.899566   248A      0.903598  
     249A      0.909503   250A      0.924754   251A      0.931750  
     252A      0.945079   253A      0.949551   254A      0.952566  
     255A      0.966141   256A      0.978580   257A      0.981089  
     258A      0.992060   259A      0.998934   260A      1.009826  
     261A      1.013989   262A      1.025785   263A      1.040672  
     264A      1.042292   265A      1.060915   266A      1.063036  
     267A      1.073892   268A      1.087447   269A      1.100944  
     270A      1.104451   271A      1.110076   272A      1.116986  
     273A      1.123985   274A      1.135969   275A      1.147998  
     276A      1.151745   277A      1.158647   278A      1.173410  
     279A      1.181155   280A      1.190845   281A      1.198618  
     282A      1.208220   283A      1.216004   284A      1.231774  
     285A      1.243893   286A      1.246044   287A      1.258869  
     288A      1.265646   289A      1.280353   290A      1.286753  
     291A      1.291237   292A      1.305767   293A      1.312035  
     294A      1.325244   295A      1.334358   296A      1.340436  
     297A      1.344658   298A      1.353805   299A      1.363439  
     300A      1.366624   301A      1.380767   302A      1.397080  
     303A      1.405753   304A      1.415546   305A      1.418958  
     306A      1.421650   307A      1.434202   308A      1.443731  
     309A      1.450455   310A      1.470668   311A      1.475564  
     312A      1.482161   313A      1.489550   314A      1.501669  
     315A      1.510193   316A      1.512667   317A      1.523454  
     318A      1.538914   319A      1.547835   320A      1.552583  
     321A      1.557401   322A      1.567134   323A      1.574855  
     324A      1.580155   325A      1.597457   326A      1.602242  
     327A      1.610406   328A      1.611972   329A      1.621183  
     330A      1.632710   331A      1.640798   332A      1.649450  
     333A      1.654427   334A      1.657353   335A      1.674467  
     336A      1.677106   337A      1.686789   338A      1.700814  
     339A      1.706090   340A      1.720811   341A      1.732824  
     342A      1.739790   343A      1.748693   344A      1.755596  
     345A      1.756751   346A      1.771699   347A      1.781313  
     348A      1.790640   349A      1.806331   350A      1.808459  
     351A      1.820987   352A      1.827409   353A      1.839477  
     354A      1.851194   355A      1.868177   356A      1.874256  
     357A      1.879158   358A      1.884952   359A      1.896684  
     360A      1.904341   361A      1.911787   362A      1.918381  
     363A      1.940626   364A      1.949818   365A      1.953072  
     366A      1.961256   367A      1.969037   368A      1.974553  
     369A      1.998568   370A      2.007279   371A      2.016462  
     372A      2.030742   373A      2.033967   374A      2.048286  
     375A      2.059840   376A      2.067633   377A      2.076015  
     378A      2.087014   379A      2.099719   380A      2.105832  
     381A      2.126189   382A      2.134575   383A      2.142899  
     384A      2.162070   385A      2.175743   386A      2.185970  
     387A      2.198656   388A      2.208708   389A      2.215193  
     390A      2.224398   391A      2.233825   392A      2.255214  
     393A      2.287067   394A      2.291290   395A      2.313759  
     396A      2.328897   397A      2.334730   398A      2.336458  
     399A      2.348376   400A      2.353480   401A      2.365647  
     402A      2.377474   403A      2.398903   404A      2.427086  
     405A      2.435973   406A      2.445085   407A      2.479912  
     408A      2.495464   409A      2.506313   410A      2.535278  
     411A      2.561642   412A      2.595171   413A      2.599874  
     414A      2.618073   415A      2.636018   416A      2.664382  
     417A      2.677527   418A      2.681829   419A      2.689249  
     420A      2.696680   421A      2.706474   422A      2.725804  
     423A      2.741770   424A      2.757343   425A      2.770200  
     426A      2.811564   427A      2.862149   428A      2.917304  
     429A      2.968472   430A      2.977043   431A      3.025153  
     432A      3.042118   433A      3.122263   434A      3.171721  
     435A      3.247328   436A      3.388338   437A      3.395846  
     438A      3.408090   439A      3.459422   440A      3.477112  
     441A      3.497325   442A      3.526724   443A      3.535323  
     444A      3.560780   445A      3.582914   446A      3.615723  
     447A      3.636107   448A      3.646878   449A      3.724903  
     450A      3.746839   451A      3.767493   452A      3.870400  
     453A      3.911581   454A      3.987324   455A      4.236414  
     456A      4.293137   457A      4.491810   458A      4.639306  
     459A      4.668929   460A      4.727159   461A      4.736573  
     462A      4.758266   463A      4.777518   464A      4.792569  
     465A      4.824220   466A      4.906001   467A      4.927141  
     468A      5.054525   469A      5.109131   470A      5.118335  
     471A      5.331193   472A      5.589244   473A      6.044634  
     474A      6.683305   475A      7.091597   476A     33.567367  

    Final Occupation by Irrep:
              A 
    DOCC [    62 ]

  @DF-RKS Final Energy: -1188.20620080938625

   => Energetics <=

    Nuclear Repulsion Energy =           1178.7086835248458101
    One-Electron Energy =               -3971.8541498784697978
    Two-Electron Energy =                1694.4909919170684134
    DFT Exchange-Correlation Energy =     -89.5382562201537553
    Empirical Dispersion Energy =          -0.0134701526768137
    VV10 Nonlocal Energy =                  0.0000000000000000
    Total Energy =                      -1188.2062008093862460

Computation Completed


Properties will be evaluated at   0.000000,  -0.000000,   0.000000 [a0]

Properties computed using the SCF density matrix

  Nuclear Dipole Moment: [e a0]
     X:    67.5603      Y:    -4.7102      Z:    27.2639

  Electronic Dipole Moment: [e a0]
     X:   -64.9998      Y:     4.2761      Z:   -27.4882

  Dipole Moment: [e a0]
     X:     2.5604      Y:    -0.4340      Z:    -0.2244     Total:     2.6066

  Dipole Moment: [D]
     X:     6.5080      Y:    -1.1032      Z:    -0.5703     Total:     6.6254


*** tstop() called on cpu-spot-dy-c5n2xlarge-1 at Tue Jun 22 15:30:27 2021
Module time:
	user time   =     942.72 seconds =      15.71 minutes
	system time =       8.88 seconds =       0.15 minutes
	total time  =        128 seconds =       2.13 minutes
Total time:
	user time   =    1549.94 seconds =      25.83 minutes
	system time =      16.06 seconds =       0.27 minutes
	total time  =        211 seconds =       3.52 minutes

       N-Body: Complex Energy (fragments = (1,), basis = (1, 2): -1188.20620080938625)

       N-Body: Computing complex (4/4) with fragments (1,) in the basis of fragments (1,).


*** tstart() called on cpu-spot-dy-c5n2xlarge-1
*** at Tue Jun 22 15:30:27 2021

   => Loading Basis Set <=

    Name: AUG-CC-PVDZ
    Role: ORBITAL
    Keyword: BASIS
    atoms 1             entry N          line   214 file /fsx/users/francis/anaconda3/envs/poltype-dev/share/psi4/basis/aug-cc-pvdz.gbs 
    atoms 2-3, 6-12, 14 entry C          line   178 file /fsx/users/francis/anaconda3/envs/poltype-dev/share/psi4/basis/aug-cc-pvdz.gbs 
    atoms 4-5           entry F          line   286 file /fsx/users/francis/anaconda3/envs/poltype-dev/share/psi4/basis/aug-cc-pvdz.gbs 
    atoms 13            entry S          line   698 file /fsx/users/francis/anaconda3/envs/poltype-dev/share/psi4/basis/aug-cc-pvdz.gbs 
    atoms 15-16         entry O          line   250 file /fsx/users/francis/anaconda3/envs/poltype-dev/share/psi4/basis/aug-cc-pvdz.gbs 
    atoms 17-23         entry H          line    36 file /fsx/users/francis/anaconda3/envs/poltype-dev/share/psi4/basis/aug-cc-pvdz.gbs 


         ---------------------------------------------------------
                                   SCF
               by Justin Turney, Rob Parrish, Andy Simmonett
                          and Daniel G. A. Smith
                              RKS Reference
                        8 Threads,  15258 MiB Core
         ---------------------------------------------------------

  ==> Geometry <==

    Molecular point group: c1
    Full point group: C1

    Geometry (in Angstrom), charge = 0, multiplicity = 1:

       Center              X                  Y                   Z               Mass       
    ------------   -----------------  -----------------  -----------------  -----------------
         N           -0.751304457041    -1.510293594858     0.233943058870    14.003074004430
         C           -2.034566457041    -1.236454594858     0.631702058870    12.000000000000
         C           -2.320101457041     0.261100405142     0.977300058870    12.000000000000
         F           -3.621313457041     0.568681405142     0.623268058870    18.998403162730
         F           -2.236767457041     0.381642405142     2.345782058870    18.998403162730
         C           -1.341247457041     1.312964405142     0.347344058870    12.000000000000
         C           -0.000169457041     0.817099405142    -0.044221941130    12.000000000000
         C            0.991372542959     1.716408405142    -0.492783941130    12.000000000000
         C            2.266249542959     1.261369405142    -0.852403941130    12.000000000000
         C            2.570668542959    -0.123504594858    -0.797305941130    12.000000000000
         C            1.561866542959    -1.031330594858    -0.408758941130    12.000000000000
         C            0.279825542959    -0.579722594858    -0.051601941130    12.000000000000
         S            4.145235542959    -0.810403594858    -1.217325941130    31.972071174400
         C            5.124665542959    -0.574696594858     0.286727058870    12.000000000000
         O           -2.862020457041    -2.130734594858     0.746535058870    15.994914619570
         O           -1.648431457041     2.501317405142     0.282022058870    15.994914619570
         H            3.011759542959     1.991695405142    -1.165482941130     1.007825032230
         H            0.741872542959     2.776568405142    -0.543546941130     1.007825032230
         H           -0.598361457041    -2.495219594858     0.067718058870     1.007825032230
         H            1.783352542959    -2.098775594858    -0.374001941130     1.007825032230
         H            5.254667542959     0.496449405142     0.469638058870     1.007825032230
         H            4.606182542959    -1.034226594858     1.134182058870     1.007825032230
         H            6.102198542959    -1.047471594858     0.152630058870     1.007825032230

  Running in c1 symmetry.

  Rotational constants: A =      0.03545  B =      0.00830  C =      0.00731 [cm^-1]
  Rotational constants: A =   1062.80808  B =    248.74031  C =    219.23782 [MHz]
  Nuclear repulsion = 1178.708683524845810

  Charge       = 0
  Multiplicity = 1
  Electrons    = 124
  Nalpha       = 62
  Nbeta        = 62

  ==> Algorithm <==

  SCF Algorithm Type is DF.
  DIIS enabled.
  MOM disabled.
  Fractional occupation disabled.
  Guess Type is SAD.
  Energy threshold   = 1.00e-06
  Density threshold  = 1.00e-06
  Integral threshold = 0.00e+00

  ==> Primary Basis <==

  Basis Set: AUG-CC-PVDZ
    Blend: AUG-CC-PVDZ
    Number of shells: 181
    Number of basis function: 435
    Number of Cartesian functions: 467
    Spherical Harmonics?: true
    Max angular momentum: 2

  ==> DFT Potential <==

   => Composite Functional: WB97X-D <= 

    wB97X-D Hyb-GGA Exchange-Correlation Functional

    J.-D. Chai and M. Head-Gordon, Phys. Chem. Chem. Phys. 10, 6615 (2008)

    Deriv               =              1
    GGA                 =           TRUE
    Meta                =          FALSE

    Exchange Hybrid     =           TRUE
    MP2 Hybrid          =          FALSE

   => Exchange-Correlation Functionals <=

    1.0000   wB97D range-separated functional

   => Exact (HF) Exchange <=

    0.7780            HF,LR [omega = 0.2000]
    0.2220               HF 

   => Molecular Quadrature <=

    Radial Scheme          =       TREUTLER
    Pruning Scheme         =           FLAT
    Nuclear Scheme         =       TREUTLER

    BS radius alpha        =              1
    Pruning alpha          =              1
    Radial Points          =             75
    Spherical Points       =            302
    Total Points           =         520950
    Total Blocks           =           3869
    Max Points             =            256
    Max Functions          =            395

   => WB97X-D: Empirical Dispersion <=

    Chai and Head-Gordon Dispersion Correction
    Chai, J.-D.; Head-Gordon, M. (2010), J. Chem. Phys., 132: 6615-6620

        s6 =       1.000000

   => Loading Basis Set <=

    Name: (AUG-CC-PVDZ AUX)
    Role: JKFIT
    Keyword: DF_BASIS_SCF
    atoms 1             entry N          line   212 file /fsx/users/francis/anaconda3/envs/poltype-dev/share/psi4/basis/aug-cc-pvdz-jkfit.gbs 
    atoms 2-3, 6-12, 14 entry C          line   154 file /fsx/users/francis/anaconda3/envs/poltype-dev/share/psi4/basis/aug-cc-pvdz-jkfit.gbs 
    atoms 4-5           entry F          line   328 file /fsx/users/francis/anaconda3/envs/poltype-dev/share/psi4/basis/aug-cc-pvdz-jkfit.gbs 
    atoms 13            entry S          line   690 file /fsx/users/francis/anaconda3/envs/poltype-dev/share/psi4/basis/aug-cc-pvdz-jkfit.gbs 
    atoms 15-16         entry O          line   270 file /fsx/users/francis/anaconda3/envs/poltype-dev/share/psi4/basis/aug-cc-pvdz-jkfit.gbs 
    atoms 17-23         entry H          line    70 file /fsx/users/francis/anaconda3/envs/poltype-dev/share/psi4/basis/aug-cc-pvdz-jkfit.gbs 

  ==> Pre-Iterations <==

   -------------------------------------------------------
    Irrep   Nso     Nmo     Nalpha   Nbeta   Ndocc  Nsocc
   -------------------------------------------------------
     A        435     435       0       0       0       0
   -------------------------------------------------------
    Total     435     435      62      62      62       0
   -------------------------------------------------------

  ==> Integral Setup <==

  ==> DiskDFJK: Density-Fitted J/K Matrices <==

    J tasked:                  Yes
    K tasked:                  Yes
    wK tasked:                 Yes
    Omega:               2.000E-01
    OpenMP threads:              8
    Integrals threads:           8
    Memory [MiB]:             6789
    Algorithm:                Core
    Integral Cache:           NONE
    Schwarz Cutoff:          1E-12
    Fitting Condition:       1E-10

   => Auxiliary Basis Set <=

  Basis Set: (AUG-CC-PVDZ AUX)
    Blend: AUG-CC-PVDZ-JKFIT
    Number of shells: 544
    Number of basis function: 1642
    Number of Cartesian functions: 1910
    Spherical Harmonics?: true
    Max angular momentum: 3

  Cached 100.0% of DFT collocation blocks in 4.546 [GiB].

  Minimum eigenvalue in the overlap matrix is 1.5024811147E-06.
  Using Symmetric Orthogonalization.

  SCF Guess: Superposition of Atomic Densities via on-the-fly atomic UHF.

  ==> Iterations <==

                           Total Energy        Delta E     RMS |[F,P]|

   @DF-RKS iter SAD: -1187.39129451801750   -1.18739e+03   0.00000e+00 
   @DF-RKS iter   1: -1187.69112355633092   -2.99829e-01   2.41912e-03 DIIS
   @DF-RKS iter   2: -1187.69947111460965   -8.34756e-03   2.62926e-03 DIIS
   @DF-RKS iter   3: -1188.17456741054707   -4.75096e-01   6.20410e-04 DIIS
   @DF-RKS iter   4: -1188.20287575679185   -2.83083e-02   1.61974e-04 DIIS
   @DF-RKS iter   5: -1188.20506699339376   -2.19124e-03   4.64384e-05 DIIS
   @DF-RKS iter   6: -1188.20528937744871   -2.22384e-04   1.58029e-05 DIIS
   @DF-RKS iter   7: -1188.20531535863756   -2.59812e-05   4.88081e-06 DIIS
   @DF-RKS iter   8: -1188.20532020194378   -4.84331e-06   1.79519e-06 DIIS
   @DF-RKS iter   9: -1188.20532136939801   -1.16745e-06   1.15735e-06 DIIS
   @DF-RKS iter  10: -1188.20532161206302   -2.42665e-07   4.07878e-07 DIIS
  Energy and wave function converged.


  ==> Post-Iterations <==

    Orbital Energies [Eh]
    ---------------------

    Doubly Occupied:                                                      

       1A    -89.069940     2A    -24.879211     3A    -24.867500  
       4A    -19.304414     5A    -19.288321     6A    -14.536866  
       7A    -10.508938     8A    -10.455584     9A    -10.436535  
      10A    -10.408035    11A    -10.379097    12A    -10.356924  
      13A    -10.352367    14A    -10.350210    15A    -10.345788  
      16A    -10.344043    17A     -8.087446    18A     -6.037318  
      19A     -6.033192    20A     -6.026217    21A     -1.385104  
      22A     -1.326075    23A     -1.190301    24A     -1.180251  
      25A     -1.094113    26A     -1.000693    27A     -0.938615  
      28A     -0.903931    29A     -0.888768    30A     -0.866752  
      31A     -0.792652    32A     -0.765753    33A     -0.752288  
      34A     -0.740072    35A     -0.695845    36A     -0.677793  
      37A     -0.667792    38A     -0.643483    39A     -0.628918  
      40A     -0.591322    41A     -0.579947    42A     -0.568838  
      43A     -0.562955    44A     -0.557585    45A     -0.555292  
      46A     -0.548481    47A     -0.539164    48A     -0.533844  
      49A     -0.527326    50A     -0.515853    51A     -0.512049  
      52A     -0.500680    53A     -0.494325    54A     -0.480586  
      55A     -0.474268    56A     -0.441322    57A     -0.420653  
      58A     -0.398233    59A     -0.371831    60A     -0.368229  
      61A     -0.340538    62A     -0.332547  

    Virtual:                                                              

      63A     -0.057285    64A      0.006752    65A      0.024016  
      66A      0.032363    67A      0.036371    68A      0.040885  
      69A      0.049093    70A      0.057658    71A      0.058850  
      72A      0.064456    73A      0.073085    74A      0.076705  
      75A      0.083021    76A      0.090294    77A      0.093210  
      78A      0.101309    79A      0.106345    80A      0.110352  
      81A      0.111621    82A      0.115755    83A      0.119747  
      84A      0.123984    85A      0.129365    86A      0.133374  
      87A      0.136199    88A      0.138412    89A      0.146630  
      90A      0.149914    91A      0.155266    92A      0.157993  
      93A      0.159598    94A      0.165827    95A      0.168738  
      96A      0.171990    97A      0.174095    98A      0.175217  
      99A      0.181090   100A      0.182200   101A      0.188099  
     102A      0.192576   103A      0.198414   104A      0.203910  
     105A      0.209914   106A      0.212762   107A      0.216359  
     108A      0.221691   109A      0.226208   110A      0.230310  
     111A      0.232637   112A      0.235851   113A      0.239201  
     114A      0.246400   115A      0.249041   116A      0.252489  
     117A      0.257121   118A      0.258833   119A      0.262967  
     120A      0.268987   121A      0.271623   122A      0.278349  
     123A      0.280054   124A      0.281405   125A      0.288012  
     126A      0.294864   127A      0.297264   128A      0.301575  
     129A      0.305477   130A      0.308377   131A      0.311060  
     132A      0.322741   133A      0.324662   134A      0.325812  
     135A      0.328688   136A      0.336260   137A      0.339607  
     138A      0.344864   139A      0.347797   140A      0.353578  
     141A      0.360155   142A      0.365619   143A      0.367777  
     144A      0.372318   145A      0.375658   146A      0.379701  
     147A      0.383477   148A      0.385548   149A      0.390447  
     150A      0.393071   151A      0.402780   152A      0.406287  
     153A      0.411656   154A      0.414108   155A      0.415785  
     156A      0.421366   157A      0.432568   158A      0.435406  
     159A      0.440559   160A      0.444952   161A      0.452071  
     162A      0.461450   163A      0.463806   164A      0.472276  
     165A      0.481044   166A      0.484622   167A      0.488235  
     168A      0.490716   169A      0.499177   170A      0.503621  
     171A      0.512062   172A      0.516651   173A      0.521960  
     174A      0.530025   175A      0.534895   176A      0.539478  
     177A      0.541716   178A      0.544366   179A      0.551882  
     180A      0.562941   181A      0.567935   182A      0.575251  
     183A      0.580727   184A      0.589390   185A      0.595572  
     186A      0.600101   187A      0.603555   188A      0.615126  
     189A      0.616682   190A      0.620186   191A      0.625633  
     192A      0.636131   193A      0.636401   194A      0.639915  
     195A      0.644007   196A      0.652236   197A      0.657890  
     198A      0.663974   199A      0.667466   200A      0.671840  
     201A      0.673283   202A      0.679609   203A      0.689568  
     204A      0.693622   205A      0.697800   206A      0.702317  
     207A      0.708349   208A      0.719569   209A      0.727619  
     210A      0.733952   211A      0.742622   212A      0.750795  
     213A      0.752506   214A      0.757217   215A      0.764602  
     216A      0.769986   217A      0.774781   218A      0.779474  
     219A      0.791323   220A      0.797063   221A      0.805145  
     222A      0.807909   223A      0.815077   224A      0.818810  
     225A      0.825234   226A      0.837740   227A      0.842081  
     228A      0.842909   229A      0.849858   230A      0.853600  
     231A      0.862366   232A      0.872956   233A      0.882940  
     234A      0.892825   235A      0.904295   236A      0.911921  
     237A      0.920571   238A      0.932326   239A      0.940637  
     240A      0.944753   241A      0.951851   242A      0.971007  
     243A      0.973966   244A      0.989966   245A      0.996270  
     246A      1.005245   247A      1.013038   248A      1.028170  
     249A      1.033943   250A      1.042948   251A      1.056922  
     252A      1.068151   253A      1.071985   254A      1.080911  
     255A      1.097737   256A      1.099027   257A      1.103303  
     258A      1.111726   259A      1.132441   260A      1.137261  
     261A      1.146965   262A      1.147656   263A      1.162529  
     264A      1.177648   265A      1.189172   266A      1.192924  
     267A      1.214326   268A      1.221329   269A      1.225183  
     270A      1.242199   271A      1.263479   272A      1.274010  
     273A      1.275003   274A      1.285523   275A      1.295062  
     276A      1.298285   277A      1.314979   278A      1.324246  
     279A      1.345010   280A      1.348771   281A      1.355312  
     282A      1.358100   283A      1.365087   284A      1.384521  
     285A      1.390006   286A      1.405163   287A      1.411594  
     288A      1.415518   289A      1.431228   290A      1.445797  
     291A      1.460777   292A      1.468808   293A      1.474372  
     294A      1.485784   295A      1.499639   296A      1.503887  
     297A      1.521745   298A      1.531399   299A      1.539459  
     300A      1.549120   301A      1.554008   302A      1.560063  
     303A      1.564346   304A      1.579023   305A      1.581125  
     306A      1.594408   307A      1.603838   308A      1.607894  
     309A      1.609961   310A      1.621725   311A      1.628570  
     312A      1.636251   313A      1.643084   314A      1.657965  
     315A      1.662798   316A      1.671681   317A      1.682459  
     318A      1.695253   319A      1.699159   320A      1.715543  
     321A      1.728527   322A      1.733538   323A      1.745809  
     324A      1.755607   325A      1.760092   326A      1.764667  
     327A      1.780407   328A      1.788605   329A      1.807093  
     330A      1.820392   331A      1.823721   332A      1.840954  
     333A      1.844211   334A      1.858615   335A      1.872328  
     336A      1.875579   337A      1.883312   338A      1.895832  
     339A      1.904825   340A      1.912943   341A      1.923622  
     342A      1.931339   343A      1.947863   344A      1.954974  
     345A      1.964374   346A      1.972790   347A      1.986346  
     348A      1.990407   349A      2.001345   350A      2.017970  
     351A      2.031294   352A      2.033615   353A      2.052700  
     354A      2.060281   355A      2.074833   356A      2.081140  
     357A      2.088904   358A      2.099078   359A      2.123697  
     360A      2.130321   361A      2.141217   362A      2.165863  
     363A      2.171547   364A      2.174556   365A      2.196966  
     366A      2.204421   367A      2.220131   368A      2.222711  
     369A      2.233667   370A      2.280023   371A      2.286175  
     372A      2.311062   373A      2.319121   374A      2.331699  
     375A      2.334524   376A      2.345569   377A      2.352146  
     378A      2.364078   379A      2.385938   380A      2.405050  
     381A      2.408517   382A      2.442625   383A      2.476631  
     384A      2.487497   385A      2.512849   386A      2.542729  
     387A      2.573901   388A      2.597217   389A      2.613994  
     390A      2.630019   391A      2.659657   392A      2.665735  
     393A      2.682540   394A      2.693898   395A      2.709420  
     396A      2.732220   397A      2.746985   398A      2.775653  
     399A      2.850085   400A      2.942800   401A      2.955606  
     402A      3.007716   403A      3.023545   404A      3.092388  
     405A      3.127681   406A      3.161558   407A      3.357010  
     408A      3.373416   409A      3.380688   410A      3.425603  
     411A      3.460911   412A      3.473025   413A      3.493570  
     414A      3.503003   415A      3.539272   416A      3.555665  
     417A      3.560556   418A      3.597187   419A      3.684174  
     420A      3.710115   421A      3.746131   422A      3.799150  
     423A      3.860908   424A      3.936369   425A      4.449639  
     426A      4.629011   427A      4.658959   428A      4.692551  
     429A      4.721089   430A      4.747214   431A      4.751842  
     432A      4.778559   433A      4.814174   434A      4.858142  
     435A      4.901833  

    Final Occupation by Irrep:
              A 
    DOCC [    62 ]

  @DF-RKS Final Energy: -1188.20532161206302

   => Energetics <=

    Nuclear Repulsion Energy =           1178.7086835248458101
    One-Electron Energy =               -3971.8446508714619085
    Two-Electron Energy =                1694.4819098715006476
    DFT Exchange-Correlation Energy =     -89.5377939842708201
    Empirical Dispersion Energy =          -0.0134701526768137
    VV10 Nonlocal Energy =                  0.0000000000000000
    Total Energy =                      -1188.2053216120627894

Computation Completed


Properties will be evaluated at   0.348531,  -0.020375,   0.249656 [a0]

Properties computed using the SCF density matrix

  Nuclear Dipole Moment: [e a0]
     X:    24.3424      Y:    -2.1837      Z:    -3.6935

  Electronic Dipole Moment: [e a0]
     X:   -21.7797      Y:     1.7495      Z:     3.4685

  Dipole Moment: [e a0]
     X:     2.5627      Y:    -0.4342      Z:    -0.2250     Total:     2.6089

  Dipole Moment: [D]
     X:     6.5137      Y:    -1.1036      Z:    -0.5719     Total:     6.6313


*** tstop() called on cpu-spot-dy-c5n2xlarge-1 at Tue Jun 22 15:32:03 2021
Module time:
	user time   =     711.75 seconds =      11.86 minutes
	system time =       7.46 seconds =       0.12 minutes
	total time  =         96 seconds =       1.60 minutes
Total time:
	user time   =    2261.75 seconds =      37.70 minutes
	system time =      23.52 seconds =       0.39 minutes
	total time  =        307 seconds =       5.12 minutes

       N-Body: Complex Energy (fragments = (1,), basis = (1,): -1188.20532161206302)

   ==> N-Body: Now computing 2-body complexes <==


       N-Body: Computing complex (1/1) with fragments (1, 2) in the basis of fragments (1, 2).


*** tstart() called on cpu-spot-dy-c5n2xlarge-1
*** at Tue Jun 22 15:32:03 2021

   => Loading Basis Set <=

    Name: AUG-CC-PVDZ
    Role: ORBITAL
    Keyword: BASIS
    atoms 1             entry N          line   214 file /fsx/users/francis/anaconda3/envs/poltype-dev/share/psi4/basis/aug-cc-pvdz.gbs 
    atoms 2-3, 6-12, 14 entry C          line   178 file /fsx/users/francis/anaconda3/envs/poltype-dev/share/psi4/basis/aug-cc-pvdz.gbs 
    atoms 4-5           entry F          line   286 file /fsx/users/francis/anaconda3/envs/poltype-dev/share/psi4/basis/aug-cc-pvdz.gbs 
    atoms 13            entry S          line   698 file /fsx/users/francis/anaconda3/envs/poltype-dev/share/psi4/basis/aug-cc-pvdz.gbs 
    atoms 15-16, 24     entry O          line   250 file /fsx/users/francis/anaconda3/envs/poltype-dev/share/psi4/basis/aug-cc-pvdz.gbs 
    atoms 17-23, 25-26  entry H          line    36 file /fsx/users/francis/anaconda3/envs/poltype-dev/share/psi4/basis/aug-cc-pvdz.gbs 


         ---------------------------------------------------------
                                   SCF
               by Justin Turney, Rob Parrish, Andy Simmonett
                          and Daniel G. A. Smith
                              RKS Reference
                        8 Threads,  15258 MiB Core
         ---------------------------------------------------------

  ==> Geometry <==

    Molecular point group: c1
    Full point group: C1

    Geometry (in Angstrom), charge = 0, multiplicity = 1:

       Center              X                  Y                   Z               Mass       
    ------------   -----------------  -----------------  -----------------  -----------------
         N           -0.751304457041    -1.510293594858     0.233943058870    14.003074004430
         C           -2.034566457041    -1.236454594858     0.631702058870    12.000000000000
         C           -2.320101457041     0.261100405142     0.977300058870    12.000000000000
[...]
         H            5.254667542959     0.496449405142     0.469638058870     1.007825032230
         H            4.606182542959    -1.034226594858     1.134182058870     1.007825032230
         H            6.102198542959    -1.047471594858     0.152630058870     1.007825032230
         O           -2.436234057041     0.110426505142    -1.779304241130    15.994914619570
         H           -3.268417057041    -0.075095494858    -1.338703241130     1.007825032230
         H           -2.539487057041     0.922386505142    -2.278626241130     1.007825032230

  Running in c1 symmetry.

  Rotational constants: A =      0.02950  B =      0.00766  C =      0.00708 [cm^-1]
  Rotational constants: A =    884.42006  B =    229.58185  C =    212.20382 [MHz]
  Nuclear repulsion = 1358.195936469650860

  Charge       = 0
  Multiplicity = 1
  Electrons    = 134
  Nalpha       = 67
  Nbeta        = 67

  ==> Algorithm <==

  SCF Algorithm Type is DF.
  DIIS enabled.
  MOM disabled.
  Fractional occupation disabled.
  Guess Type is SAD.
  Energy threshold   = 1.00e-06
  Density threshold  = 1.00e-06
  Integral threshold = 0.00e+00

  ==> Primary Basis <==

  Basis Set: AUG-CC-PVDZ
    Blend: AUG-CC-PVDZ
    Number of shells: 200
    Number of basis function: 476
    Number of Cartesian functions: 510
    Spherical Harmonics?: true
    Max angular momentum: 2

  ==> DFT Potential <==

   => Composite Functional: WB97X-D <= 

    wB97X-D Hyb-GGA Exchange-Correlation Functional

    J.-D. Chai and M. Head-Gordon, Phys. Chem. Chem. Phys. 10, 6615 (2008)

    Deriv               =              1
    GGA                 =           TRUE
    Meta                =          FALSE

    Exchange Hybrid     =           TRUE
    MP2 Hybrid          =          FALSE

   => Exchange-Correlation Functionals <=

    1.0000   wB97D range-separated functional

   => Exact (HF) Exchange <=

    0.7780            HF,LR [omega = 0.2000]
    0.2220               HF 

   => Molecular Quadrature <=

    Radial Scheme          =       TREUTLER
    Pruning Scheme         =           FLAT
    Nuclear Scheme         =       TREUTLER

    BS radius alpha        =              1
    Pruning alpha          =              1
    Radial Points          =             75
    Spherical Points       =            302
    Total Points           =         588900
    Total Blocks           =           4343
    Max Points             =            256
    Max Functions          =            432

   => WB97X-D: Empirical Dispersion <=

    Chai and Head-Gordon Dispersion Correction
    Chai, J.-D.; Head-Gordon, M. (2010), J. Chem. Phys., 132: 6615-6620

        s6 =       1.000000

   => Loading Basis Set <=

    Name: (AUG-CC-PVDZ AUX)
    Role: JKFIT
    Keyword: DF_BASIS_SCF
    atoms 1             entry N          line   212 file /fsx/users/francis/anaconda3/envs/poltype-dev/share/psi4/basis/aug-cc-pvdz-jkfit.gbs 
    atoms 2-3, 6-12, 14 entry C          line   154 file /fsx/users/francis/anaconda3/envs/poltype-dev/share/psi4/basis/aug-cc-pvdz-jkfit.gbs 
    atoms 4-5           entry F          line   328 file /fsx/users/francis/anaconda3/envs/poltype-dev/share/psi4/basis/aug-cc-pvdz-jkfit.gbs 
    atoms 13            entry S          line   690 file /fsx/users/francis/anaconda3/envs/poltype-dev/share/psi4/basis/aug-cc-pvdz-jkfit.gbs 
    atoms 15-16, 24     entry O          line   270 file /fsx/users/francis/anaconda3/envs/poltype-dev/share/psi4/basis/aug-cc-pvdz-jkfit.gbs 
    atoms 17-23, 25-26  entry H          line    70 file /fsx/users/francis/anaconda3/envs/poltype-dev/share/psi4/basis/aug-cc-pvdz-jkfit.gbs 

  ==> Pre-Iterations <==

   -------------------------------------------------------
    Irrep   Nso     Nmo     Nalpha   Nbeta   Ndocc  Nsocc
   -------------------------------------------------------
     A        476     476       0       0       0       0
   -------------------------------------------------------
    Total     476     476      67      67      67       0
   -------------------------------------------------------

  ==> Integral Setup <==

  ==> DiskDFJK: Density-Fitted J/K Matrices <==

    J tasked:                  Yes
    K tasked:                  Yes
    wK tasked:                 Yes
    Omega:               2.000E-01
    OpenMP threads:              8
    Integrals threads:           8
    Memory [MiB]:             5808
    Algorithm:                Core
    Integral Cache:           NONE
    Schwarz Cutoff:          1E-12
    Fitting Condition:       1E-10

   => Auxiliary Basis Set <=

  Basis Set: (AUG-CC-PVDZ AUX)
    Blend: AUG-CC-PVDZ-JKFIT
    Number of shells: 596
    Number of basis function: 1792
    Number of Cartesian functions: 2081
    Spherical Harmonics?: true
    Max angular momentum: 3

  Cached 100.0% of DFT collocation blocks in 5.504 [GiB].

  Minimum eigenvalue in the overlap matrix is 1.4145912418E-06.
  Using Symmetric Orthogonalization.

  SCF Guess: Superposition of Atomic Densities via on-the-fly atomic UHF.

  ==> Iterations <==

                           Total Energy        Delta E     RMS |[F,P]|

   @DF-RKS iter SAD: -1263.55324594449280   -1.26355e+03   0.00000e+00 
   @DF-RKS iter   1: -1263.99708492485524   -4.43839e-01   2.51711e-03 DIIS
   @DF-RKS iter   2: -1264.01709493448971   -2.00100e-02   2.67141e-03 DIIS
   @DF-RKS iter   3: -1264.60919238532802   -5.92097e-01   5.06379e-04 DIIS
   @DF-RKS iter   4: -1264.63043591193991   -2.12435e-02   1.86885e-04 DIIS
   @DF-RKS iter   5: -1264.63356491010609   -3.12900e-03   5.38251e-05 DIIS
   @DF-RKS iter   6: -1264.63386678690927   -3.01877e-04   1.38054e-05 DIIS
   @DF-RKS iter   7: -1264.63389430809525   -2.75212e-05   4.60502e-06 DIIS
   @DF-RKS iter   8: -1264.63389912342745   -4.81533e-06   1.90717e-06 DIIS
   @DF-RKS iter   9: -1264.63390026058005   -1.13715e-06   1.17860e-06 DIIS
   @DF-RKS iter  10: -1264.63390056980984   -3.09230e-07   3.67229e-07 DIIS
  Energy and wave function converged.


  ==> Post-Iterations <==

    Orbital Energies [Eh]
    ---------------------

    Doubly Occupied:                                                      

       1A    -89.064280     2A    -24.876940     3A    -24.874135  
       4A    -19.296068     5A    -19.295403     6A    -19.284199  
       7A    -14.528238     8A    -10.506010     9A    -10.451212  
      10A    -10.431952    11A    -10.398657    12A    -10.371057  
      13A    -10.348664    14A    -10.344451    15A    -10.342566  
      16A    -10.340817    17A    -10.337029    18A     -8.081755  
      19A     -6.031616    20A     -6.027498    21A     -6.020552  
      22A     -1.386726    23A     -1.330023    24A     -1.186094  
      25A     -1.173439    26A     -1.140771    27A     -1.085787  
      28A     -0.992870    29A     -0.931391    30A     -0.898095  
      31A     -0.881354    32A     -0.861604    33A     -0.787252  
      34A     -0.759109    35A     -0.745873    36A     -0.735225  
      37A     -0.693062    38A     -0.673512    39A     -0.671760  
      40A     -0.653130    41A     -0.636444    42A     -0.623209  
      43A     -0.584094    44A     -0.574590    45A     -0.565164  
      46A     -0.558378    47A     -0.553061    48A     -0.550238  
      49A     -0.546582    50A     -0.538089    51A     -0.529106  
      52A     -0.524097    53A     -0.522728    54A     -0.507658  
      55A     -0.498103    56A     -0.495097    57A     -0.489414  
      58A     -0.475352    59A     -0.468286    60A     -0.434914  
      61A     -0.423827    62A     -0.414253    63A     -0.393826  
      64A     -0.366599    65A     -0.360474    66A     -0.333074  
      67A     -0.326425  

    Virtual:                                                              

      68A     -0.044472    69A      0.013079    70A      0.027432  
      71A      0.035864    72A      0.036964    73A      0.044113  
      74A      0.049707    75A      0.052474    76A      0.060582  
      77A      0.064565    78A      0.068074    79A      0.074516  
      80A      0.079715    81A      0.083149    82A      0.093509  
      83A      0.095755    84A      0.103954    85A      0.107888  
      86A      0.109890    87A      0.117119    88A      0.118455  
      89A      0.121424    90A      0.124733    91A      0.129890  
      92A      0.133813    93A      0.134550    94A      0.139369  
      95A      0.145108    96A      0.147886    97A      0.151219  
      98A      0.155146    99A      0.159286   100A      0.164875  
     101A      0.168191   102A      0.170382   103A      0.174986  
     104A      0.176743   105A      0.180703   106A      0.181562  
     107A      0.184767   108A      0.190880   109A      0.197660  
     110A      0.201271   111A      0.202515   112A      0.206560  
     113A      0.213000   114A      0.214576   115A      0.221604  
     116A      0.224437   117A      0.233088   118A      0.233654  
     119A      0.235641   120A      0.239343   121A      0.243900  
     122A      0.246811   123A      0.252653   124A      0.258678  
     125A      0.259840   126A      0.262812   127A      0.266635  
     128A      0.272642   129A      0.277572   130A      0.280169  
     131A      0.282123   132A      0.283840   133A      0.287356  
     134A      0.289420   135A      0.292016   136A      0.296376  
     137A      0.299321   138A      0.305214   139A      0.312360  
     140A      0.313627   141A      0.317262   142A      0.320917  
     143A      0.324779   144A      0.333034   145A      0.336467  
     146A      0.341395   147A      0.346699   148A      0.350791  
     149A      0.351322   150A      0.358061   151A      0.363049  
     152A      0.368358   153A      0.370959   154A      0.375234  
     155A      0.378608   156A      0.381690   157A      0.386587  
     158A      0.387536   159A      0.390873   160A      0.397872  
     161A      0.403144   162A      0.408170   163A      0.412182  
     164A      0.413780   165A      0.419552   166A      0.424114  
     167A      0.429534   168A      0.434379   169A      0.438923  
     170A      0.441560   171A      0.445654   172A      0.450925  
     173A      0.459300   174A      0.462661   175A      0.468507  
     176A      0.473620   177A      0.483493   178A      0.489672  
     179A      0.496293   180A      0.498229   181A      0.501004  
     182A      0.507334   183A      0.512114   184A      0.519019  
     185A      0.519738   186A      0.524629   187A      0.532447  
     188A      0.535250   189A      0.538664   190A      0.545382  
     191A      0.549513   192A      0.553164   193A      0.562307  
     194A      0.567992   195A      0.569310   196A      0.580406  
     197A      0.584467   198A      0.586898   199A      0.593586  
     200A      0.598704   201A      0.600861   202A      0.611881  
     203A      0.617176   204A      0.618355   205A      0.626045  
     206A      0.631741   207A      0.634859   208A      0.639224  
     209A      0.643805   210A      0.649693   211A      0.652065  
     212A      0.655722   213A      0.660182   214A      0.668906  
     215A      0.670550   216A      0.677307   217A      0.680831  
     218A      0.686881   219A      0.687464   220A      0.702398  
     221A      0.703786   222A      0.705648   223A      0.710415  
     224A      0.715146   225A      0.720983   226A      0.727263  
     227A      0.736724   228A      0.740532   229A      0.742881  
     230A      0.749099   231A      0.762534   232A      0.764534  
     233A      0.773865   234A      0.783745   235A      0.786930  
     236A      0.792605   237A      0.797393   238A      0.807958  
     239A      0.813707   240A      0.820662   241A      0.825201  
     242A      0.832501   243A      0.834452   244A      0.838934  
     245A      0.847240   246A      0.853489   247A      0.857659  
     248A      0.866001   249A      0.868708   250A      0.880520  
     251A      0.882673   252A      0.896631   253A      0.903863  
     254A      0.907179   255A      0.923607   256A      0.933301  
     257A      0.936769   258A      0.942123   259A      0.952525  
     260A      0.956730   261A      0.966782   262A      0.976915  
     263A      0.984710   264A      0.991510   265A      0.999315  
     266A      1.012187   267A      1.018387   268A      1.025376  
     269A      1.036722   270A      1.047844   271A      1.065527  
     272A      1.074346   273A      1.079250   274A      1.083593  
     275A      1.094996   276A      1.104803   277A      1.114913  
     278A      1.116030   279A      1.131735   280A      1.142433  
     281A      1.145934   282A      1.153338   283A      1.158687  
     284A      1.171249   285A      1.185903   286A      1.191768  
     287A      1.195206   288A      1.208100   289A      1.212275  
     290A      1.221711   291A      1.233112   292A      1.238864  
     293A      1.260347   294A      1.269409   295A      1.282461  
     296A      1.286335   297A      1.294650   298A      1.303275  
     299A      1.311986   300A      1.320769   301A      1.324558  
     302A      1.336799   303A      1.345950   304A      1.358250  
     305A      1.368354   306A      1.378847   307A      1.391364  
     308A      1.394579   309A      1.407405   310A      1.415089  
     311A      1.419050   312A      1.424929   313A      1.437743  
     314A      1.451173   315A      1.454921   316A      1.475169  
     317A      1.479664   318A      1.491698   319A      1.503412  
     320A      1.508943   321A      1.516568   322A      1.540218  
     323A      1.544249   324A      1.551229   325A      1.556708  
     326A      1.561497   327A      1.566453   328A      1.572798  
     329A      1.574383   330A      1.586585   331A      1.608745  
     332A      1.616013   333A      1.618683   334A      1.623518  
     335A      1.626537   336A      1.635502   337A      1.637295  
     338A      1.640943   339A      1.660614   340A      1.674128  
     341A      1.678641   342A      1.690757   343A      1.696204  
     344A      1.709863   345A      1.719175   346A      1.729124  
     347A      1.741036   348A      1.751990   349A      1.754953  
     350A      1.765339   351A      1.770735   352A      1.781659  
     353A      1.791980   354A      1.803995   355A      1.813274  
     356A      1.826697   357A      1.834690   358A      1.844987  
     359A      1.850067   360A      1.863184   361A      1.873833  
     362A      1.876632   363A      1.886958   364A      1.898410  
     365A      1.904913   366A      1.908901   367A      1.919497  
     368A      1.927424   369A      1.951113   370A      1.953350  
     371A      1.960576   372A      1.966736   373A      1.980453  
     374A      1.990150   375A      2.004672   376A      2.015676  
     377A      2.016986   378A      2.026949   379A      2.033473  
     380A      2.048813   381A      2.058378   382A      2.064758  
     383A      2.075636   384A      2.085761   385A      2.105668  
     386A      2.110358   387A      2.127383   388A      2.131315  
     389A      2.146166   390A      2.159300   391A      2.171590  
     392A      2.177876   393A      2.202310   394A      2.209825  
     395A      2.217227   396A      2.225806   397A      2.232668  
     398A      2.247760   399A      2.257989   400A      2.266287  
     401A      2.286860   402A      2.300410   403A      2.320258  
     404A      2.330919   405A      2.333055   406A      2.343342  
     407A      2.357271   408A      2.359609   409A      2.372905  
     410A      2.383498   411A      2.410511   412A      2.430210  
     413A      2.447013   414A      2.461351   415A      2.468372  
     416A      2.497024   417A      2.509718   418A      2.534897  
     419A      2.556413   420A      2.577155   421A      2.592996  
     422A      2.605923   423A      2.632161   424A      2.654245  
     425A      2.680226   426A      2.692485   427A      2.699277  
     428A      2.710473   429A      2.720151   430A      2.743830  
     431A      2.755214   432A      2.793591   433A      2.834264  
     434A      2.861547   435A      2.964729   436A      2.972189  
     437A      2.996933   438A      3.033922   439A      3.051536  
     440A      3.144895   441A      3.180003   442A      3.254337  
     443A      3.390363   444A      3.397732   445A      3.415862  
     446A      3.432757   447A      3.461693   448A      3.478555  
     449A      3.497270   450A      3.515924   451A      3.532327  
     452A      3.535473   453A      3.576197   454A      3.584486  
     455A      3.626984   456A      3.648369   457A      3.661560  
     458A      3.734474   459A      3.759723   460A      3.770017  
     461A      3.883643   462A      3.907056   463A      3.943061  
     464A      4.032602   465A      4.141692   466A      4.498665  
     467A      4.639038   468A      4.671497   469A      4.723358  
     470A      4.735701   471A      4.756475   472A      4.779497  
     473A      4.788476   474A      4.821181   475A      4.901644  
     476A      4.918624  

    Final Occupation by Irrep:
              A 
    DOCC [    67 ]

  @DF-RKS Final Energy: -1264.63390056980984

   => Energetics <=

    Nuclear Repulsion Energy =           1358.1959364696508601
    One-Electron Energy =               -4435.8405537550961526
    Two-Electron Energy =                1909.0612763250826447
    DFT Exchange-Correlation Energy =     -96.0334144382542831
    Empirical Dispersion Energy =          -0.0171451711928860
    VV10 Nonlocal Energy =                  0.0000000000000000
    Total Energy =                      -1264.6339005698098390

Computation Completed


Properties will be evaluated at   0.000000,  -0.000000,   0.000000 [a0]

Properties computed using the SCF density matrix

  Nuclear Dipole Moment: [e a0]
     X:    19.7544      Y:    -1.4396      Z:    -6.4711

  Electronic Dipole Moment: [e a0]
     X:   -17.9476      Y:     1.3550      Z:     6.0395

  Dipole Moment: [e a0]
     X:     1.8067      Y:    -0.0846      Z:    -0.4315     Total:     1.8595

  Dipole Moment: [D]
     X:     4.5923      Y:    -0.2151      Z:    -1.0969     Total:     4.7264


*** tstop() called on cpu-spot-dy-c5n2xlarge-1 at Tue Jun 22 15:34:10 2021
Module time:
	user time   =     942.45 seconds =      15.71 minutes
	system time =       9.08 seconds =       0.15 minutes
	total time  =        127 seconds =       2.12 minutes
Total time:
	user time   =    3204.25 seconds =      53.40 minutes
	system time =      32.60 seconds =       0.54 minutes
	total time  =        434 seconds =       7.23 minutes

       N-Body: Complex Energy (fragments = (1, 2), basis = (1, 2): -1264.63390056980984)

   ==> N-Body: Counterpoise Corrected (CP) energies <==

   n-Body     Total Energy [Eh]       I.E. [kcal/mol]      Delta [kcal/mol]
        1    -1264.624825141076        0.000000000000        0.000000000000
        2    -1264.632244886711       -4.655960679083       -4.655960679083

   => Loading Basis Set <=

    Name: DEF2-SVP
    Role: ORBITAL
    Keyword: BASIS
    atoms 1             entry N          line   110 file /fsx/users/francis/anaconda3/envs/poltype-dev/share/psi4/basis/def2-svp.gbs 
    atoms 2-3, 6-12, 14 entry C          line    90 file /fsx/users/francis/anaconda3/envs/poltype-dev/share/psi4/basis/def2-svp.gbs 
    atoms 4-5           entry F          line   150 file /fsx/users/francis/anaconda3/envs/poltype-dev/share/psi4/basis/def2-svp.gbs 
    atoms 13            entry S          line   328 file /fsx/users/francis/anaconda3/envs/poltype-dev/share/psi4/basis/def2-svp.gbs 
    atoms 15-16, 24     entry O          line   130 file /fsx/users/francis/anaconda3/envs/poltype-dev/share/psi4/basis/def2-svp.gbs 
    atoms 17-23, 25-26  entry H          line    15 file /fsx/users/francis/anaconda3/envs/poltype-dev/share/psi4/basis/def2-svp.gbs 

CP Energy =  -0.007420
    Psi4 stopped on: Tuesday, 22 June 2021 03:34PM
    Psi4 wall time for execution: 0:07:15.12

*** Psi4 exiting successfully. Buy a developer a beer!
