
    -----------------------------------------------------------------------
          Psi4: An Open-Source Ab Initio Electronic Structure Package
                               Psi4 1.3.2 release

                         Git: Rev {HEAD} ecbda83 


    R. M. Parrish, L. A. Burns, D. G. A. Smith, A. C. Simmonett,
    A. E. DePrince III, E. G. Hohenstein, U. Bozkaya, A. Yu. Sokolov,
    R. Di Remigio, R. M. Richard, J. F. Gonthier, A. M. James,
    H. R. McAlexander, A. Kumar, M. Saitow, X. Wang, B. P. Pritchard,
    P. Verma, H. F. Schaefer III, K. Patkowski, R. A. King, E. F. Valeev,
    F. A. Evangelista, J. M. Turney, T. D. Crawford, and C. D. Sherrill,
    J. Chem. Theory Comput. 13(7) pp 3185--3197 (2017).
    (doi: 10.1021/acs.jctc.7b00174)


                         Additional Contributions by
    P. Kraus, H. Kruse, M. H. Lechner, M. C. Schieber, R. A. Shaw,
    A. Alenaizan, R. Galvelis, Z. L. Glick, S. Lehtola, and J. P. Misiewicz

    -----------------------------------------------------------------------


    Psi4 started on: Tuesday, 22 June 2021 02:34PM

    Process ID: 20348
    Host:       cpu-spot-dy-c5n2xlarge-1
    PSIDATADIR: /fsx/users/francis/anaconda3/envs/poltype-dev/share/psi4
    Memory:     500.0 MiB
    Threads:    1
    
  ==> Input File <==

--------------------------------------------------------------------------
molecule { 
0 1
  N                 -0.8664290    -1.2589580    -0.1536890
  C                 -2.1480460    -0.9706410     0.2378410
  C                 -2.4007690     0.5145350     0.6579700
  F                 -3.6850840     0.8694240     0.2915950
  F                 -2.3353680     0.5658950     2.0315300
  C                 -1.3937820     1.5693870     0.0855650
  C                 -0.0656290     1.0595950    -0.3300500
  C                  0.9465510     1.9559480    -0.7385460
  C                  2.2136610     1.4889290    -1.1106430
  C                  2.4907560     0.0971820    -1.1056990
  C                  1.4623780    -0.8043860    -0.7556460
  C                  0.1875990    -0.3407930    -0.3880530
  S                  4.0542370    -0.6049660    -1.5424950
  C                  5.0346590    -0.4289270    -0.0306500
  O                 -3.0063170    -1.8468130     0.2574760
  O                 -1.6655360     2.7669320     0.0871550
  H                  2.9744450     2.2152280    -1.3953660
  H                  0.7201870     3.0225720    -0.7441760
  H                 -0.7355770    -2.2367310    -0.3731030
  H                  1.6634470    -1.8765260    -0.7569760
  H                  5.2834860     0.6263530     0.1168130
  H                  4.4568290    -0.7941620     0.8239960
  H                  5.9530340    -1.0151490    -0.1306800
--
0 1
  O                 -3.2583752    -0.3413878    -2.8442754
  H                 -3.6536392    -1.0783818    -2.3709134
  H                 -3.9562832     0.2820242    -3.0509994
}
memory 16GB
set_num_threads(8)
psi4_io.set_default_path("/scratch/Psi4-ligand")
set maxiter 500
set freeze_core True
set PROPERTIES_ORIGIN ["COM"]
e_dim= energy('wb97x-d/aug-cc-pVDZ',bsse_type='cp')

psi4.print_out('CP Energy = %10.6f' % (e_dim))
clean()
--------------------------------------------------------------------------

  Memory set to  14.901 GiB by Python driver.
  Threads set to 8 by Python driver.


   ===> N-Body Interaction Abacus <===
        BSSE Treatment:                     cp
        Number of 1-body computations:     4
        Number of 2-body computations:     1

   ==> N-Body: Now computing 1-body complexes <==


       N-Body: Computing complex (1/4) with fragments (2,) in the basis of fragments (2,).


*** tstart() called on cpu-spot-dy-c5n2xlarge-1
*** at Tue Jun 22 14:34:42 2021

   => Loading Basis Set <=

    Name: AUG-CC-PVDZ
    Role: ORBITAL
    Keyword: BASIS
    atoms 1   entry O          line   250 file /fsx/users/francis/anaconda3/envs/poltype-dev/share/psi4/basis/aug-cc-pvdz.gbs 
    atoms 2-3 entry H          line    36 file /fsx/users/francis/anaconda3/envs/poltype-dev/share/psi4/basis/aug-cc-pvdz.gbs 


         ---------------------------------------------------------
                                   SCF
               by Justin Turney, Rob Parrish, Andy Simmonett
                          and Daniel G. A. Smith
                              RKS Reference
                        8 Threads,  15258 MiB Core
         ---------------------------------------------------------

  ==> Geometry <==

    Molecular point group: c1
    Full point group: C1

    Geometry (in Angstrom), charge = 0, multiplicity = 1:

       Center              X                  Y                   Z               Mass       
    ------------   -----------------  -----------------  -----------------  -----------------
         O           -3.124294404921    -0.526742922349    -2.472694008072    15.994914619570
         H           -3.519558404921    -1.263736922349    -1.999332008072     1.007825032230
         H           -3.822202404921     0.096669077651    -2.679418008072     1.007825032230

  Running in c1 symmetry.

  Rotational constants: A =     11.66184  B =      0.05670  C =      0.05654 [cm^-1]
  Rotational constants: A = 349613.18255  B =   1699.77104  C =   1695.09279 [MHz]
  Nuclear repulsion =    9.163953061555420

  Charge       = 0
  Multiplicity = 1
  Electrons    = 10
  Nalpha       = 5
  Nbeta        = 5

  ==> Algorithm <==

  SCF Algorithm Type is DF.
  DIIS enabled.
  MOM disabled.
  Fractional occupation disabled.
  Guess Type is SAD.
  Energy threshold   = 1.00e-06
  Density threshold  = 1.00e-06
  Integral threshold = 0.00e+00

  ==> Primary Basis <==

  Basis Set: AUG-CC-PVDZ
    Blend: AUG-CC-PVDZ
    Number of shells: 19
    Number of basis function: 41
    Number of Cartesian functions: 43
    Spherical Harmonics?: true
    Max angular momentum: 2

  ==> DFT Potential <==

   => Composite Functional: WB97X-D <= 

    wB97X-D Hyb-GGA Exchange-Correlation Functional

    J.-D. Chai and M. Head-Gordon, Phys. Chem. Chem. Phys. 10, 6615 (2008)

    Deriv               =              1
    GGA                 =           TRUE
    Meta                =          FALSE

    Exchange Hybrid     =           TRUE
    MP2 Hybrid          =          FALSE

   => Exchange-Correlation Functionals <=

    1.0000   wB97D range-separated functional

   => Exact (HF) Exchange <=

    0.7780            HF,LR [omega = 0.2000]
    0.2220               HF 

   => Molecular Quadrature <=

    Radial Scheme          =       TREUTLER
    Pruning Scheme         =           FLAT
    Nuclear Scheme         =       TREUTLER

    BS radius alpha        =              1
    Pruning alpha          =              1
    Radial Points          =             75
    Spherical Points       =            302
    Total Points           =          67950
    Total Blocks           =            574
    Max Points             =            255
    Max Functions          =             41

   => WB97X-D: Empirical Dispersion <=

    Chai and Head-Gordon Dispersion Correction
    Chai, J.-D.; Head-Gordon, M. (2010), J. Chem. Phys., 132: 6615-6620

        s6 =       1.000000

   => Loading Basis Set <=

    Name: (AUG-CC-PVDZ AUX)
    Role: JKFIT
    Keyword: DF_BASIS_SCF
    atoms 1   entry O          line   270 file /fsx/users/francis/anaconda3/envs/poltype-dev/share/psi4/basis/aug-cc-pvdz-jkfit.gbs 
    atoms 2-3 entry H          line    70 file /fsx/users/francis/anaconda3/envs/poltype-dev/share/psi4/basis/aug-cc-pvdz-jkfit.gbs 

  ==> Pre-Iterations <==

   -------------------------------------------------------
    Irrep   Nso     Nmo     Nalpha   Nbeta   Ndocc  Nsocc
   -------------------------------------------------------
     A         41      41       0       0       0       0
   -------------------------------------------------------
    Total      41      41       5       5       5       0
   -------------------------------------------------------

  ==> Integral Setup <==

  ==> DiskDFJK: Density-Fitted J/K Matrices <==

    J tasked:                  Yes
    K tasked:                  Yes
    wK tasked:                 Yes
    Omega:               2.000E-01
    OpenMP threads:              8
    Integrals threads:           8
    Memory [MiB]:            11363
    Algorithm:                Core
    Integral Cache:           NONE
    Schwarz Cutoff:          1E-12
    Fitting Condition:       1E-10

   => Auxiliary Basis Set <=

  Basis Set: (AUG-CC-PVDZ AUX)
    Blend: AUG-CC-PVDZ-JKFIT
    Number of shells: 52
    Number of basis function: 150
    Number of Cartesian functions: 171
    Spherical Harmonics?: true
    Max angular momentum: 3

  Cached 100.0% of DFT collocation blocks in 0.079 [GiB].

  Minimum eigenvalue in the overlap matrix is 2.8181850016E-03.
  Using Symmetric Orthogonalization.

  SCF Guess: Superposition of Atomic Densities via on-the-fly atomic UHF.

  ==> Iterations <==

                           Total Energy        Delta E     RMS |[F,P]|

   @DF-RKS iter SAD:   -75.95298849794743   -7.59530e+01   0.00000e+00 
   @DF-RKS iter   1:   -76.27479180701334   -3.21803e-01   1.51025e-02 DIIS
   @DF-RKS iter   2:   -76.22797837987467    4.68134e-02   1.78012e-02 DIIS
   @DF-RKS iter   3:   -76.41937966469804   -1.91401e-01   3.63593e-04 DIIS
   @DF-RKS iter   4:   -76.41952462041694   -1.44956e-04   9.80291e-05 DIIS
   @DF-RKS iter   5:   -76.41953247564479   -7.85523e-06   1.86589e-05 DIIS
   @DF-RKS iter   6:   -76.41953280108136   -3.25437e-07   2.01715e-06 DIIS
   @DF-RKS iter   7:   -76.41953281164666   -1.05653e-08   2.54285e-07 DIIS
  Energy and wave function converged.


  ==> Post-Iterations <==

    Orbital Energies [Eh]
    ---------------------

    Doubly Occupied:                                                      

       1A    -19.278409     2A     -1.119559     3A     -0.631664  
       4A     -0.478766     5A     -0.406737  

    Virtual:                                                              

       6A      0.033995     7A      0.060955     8A      0.162094  
       9A      0.190810    10A      0.199502    11A      0.217722  
      12A      0.255452    13A      0.301860    14A      0.362037  
      15A      0.377884    16A      0.407861    17A      0.518258  
      18A      0.579978    19A      0.603668    20A      0.716599  
      21A      0.810104    22A      0.980650    23A      0.992272  
      24A      1.034555    25A      1.173778    26A      1.288951  
      27A      1.315185    28A      1.397329    29A      1.817879  
      30A      1.849886    31A      1.920704    32A      2.227237  
      33A      2.231538    34A      2.375693    35A      2.497608  
      36A      2.712259    37A      3.372685    38A      3.384640  
      39A      3.402432    40A      3.735963    41A      3.968824  

    Final Occupation by Irrep:
              A 
    DOCC [     5 ]

  @DF-RKS Final Energy:   -76.41953281164666

   => Energetics <=

    Nuclear Repulsion Energy =              9.1639530615554197
    One-Electron Energy =                -122.9427109543662198
    Two-Electron Energy =                  43.8317248463685019
    DFT Exchange-Correlation Energy =      -6.4724690455323035
    Empirical Dispersion Energy =          -0.0000307196720609
    VV10 Nonlocal Energy =                  0.0000000000000000
    Total Energy =                        -76.4195328116466612

Computation Completed


Properties will be evaluated at  -6.019657,  -1.007411,  -4.644519 [a0]

Properties computed using the SCF density matrix

  Nuclear Dipole Moment: [e a0]
     X:    -0.9098      Y:    -0.0945      Z:     0.2219

  Electronic Dipole Moment: [e a0]
     X:     0.2106      Y:     0.0223      Z:    -0.0516

  Dipole Moment: [e a0]
     X:    -0.6992      Y:    -0.0722      Z:     0.1703     Total:     0.7233

  Dipole Moment: [D]
     X:    -1.7773      Y:    -0.1836      Z:     0.4329     Total:     1.8384


*** tstop() called on cpu-spot-dy-c5n2xlarge-1 at Tue Jun 22 14:34:43 2021
Module time:
	user time   =       8.12 seconds =       0.14 minutes
	system time =       0.21 seconds =       0.00 minutes
	total time  =          1 seconds =       0.02 minutes
Total time:
	user time   =       8.12 seconds =       0.14 minutes
	system time =       0.21 seconds =       0.00 minutes
	total time  =          1 seconds =       0.02 minutes

       N-Body: Complex Energy (fragments = (2,), basis = (2,):   -76.41953281164666)

       N-Body: Computing complex (2/4) with fragments (2,) in the basis of fragments (1, 2).


*** tstart() called on cpu-spot-dy-c5n2xlarge-1
*** at Tue Jun 22 14:34:43 2021

   => Loading Basis Set <=

    Name: AUG-CC-PVDZ
    Role: ORBITAL
    Keyword: BASIS
    atoms 1             entry N          line   214 file /fsx/users/francis/anaconda3/envs/poltype-dev/share/psi4/basis/aug-cc-pvdz.gbs 
    atoms 2-3, 6-12, 14 entry C          line   178 file /fsx/users/francis/anaconda3/envs/poltype-dev/share/psi4/basis/aug-cc-pvdz.gbs 
    atoms 4-5           entry F          line   286 file /fsx/users/francis/anaconda3/envs/poltype-dev/share/psi4/basis/aug-cc-pvdz.gbs 
    atoms 13            entry S          line   698 file /fsx/users/francis/anaconda3/envs/poltype-dev/share/psi4/basis/aug-cc-pvdz.gbs 
    atoms 15-16, 24     entry O          line   250 file /fsx/users/francis/anaconda3/envs/poltype-dev/share/psi4/basis/aug-cc-pvdz.gbs 
    atoms 17-23, 25-26  entry H          line    36 file /fsx/users/francis/anaconda3/envs/poltype-dev/share/psi4/basis/aug-cc-pvdz.gbs 


         ---------------------------------------------------------
                                   SCF
               by Justin Turney, Rob Parrish, Andy Simmonett
                          and Daniel G. A. Smith
                              RKS Reference
                        8 Threads,  15258 MiB Core
         ---------------------------------------------------------

  ==> Geometry <==

    Molecular point group: c1
    Full point group: C1

    Geometry (in Angstrom), charge = 0, multiplicity = 1:

       Center              X                  Y                   Z               Mass       
    ------------   -----------------  -----------------  -----------------  -----------------
      Gh(N)          -0.732348204921    -1.444313122349     0.217892391928    14.003074004430
      Gh(C)          -2.013965204921    -1.155996122349     0.609422391928    12.000000000000
      Gh(C)          -2.266688204921     0.329179877651     1.029551391928    12.000000000000
      Gh(F)          -3.551003204921     0.684068877651     0.663176391928    18.998403162730
      Gh(F)          -2.201287204921     0.380539877651     2.403111391928    18.998403162730
      Gh(C)          -1.259701204921     1.384031877651     0.457146391928    12.000000000000
      Gh(C)           0.068451795079     0.874239877651     0.041531391928    12.000000000000
      Gh(C)           1.080631795079     1.770592877651    -0.366964608072    12.000000000000
      Gh(C)           2.347741795079     1.303573877651    -0.739061608072    12.000000000000
      Gh(C)           2.624836795079    -0.088173122349    -0.734117608072    12.000000000000
      Gh(C)           1.596458795079    -0.989741122349    -0.384064608072    12.000000000000
      Gh(C)           0.321679795079    -0.526148122349    -0.016471608072    12.000000000000
      Gh(S)           4.188317795079    -0.790321122349    -1.170913608072    31.972071174400
      Gh(C)           5.168739795079    -0.614282122349     0.340931391928    12.000000000000
      Gh(O)          -2.872236204921    -2.032168122349     0.629057391928    15.994914619570
      Gh(O)          -1.531455204921     2.581576877651     0.458736391928    15.994914619570
      Gh(H)           3.108525795079     2.029872877651    -1.023784608072     1.007825032230
      Gh(H)           0.854267795079     2.837216877651    -0.372594608072     1.007825032230
      Gh(H)          -0.601496204921    -2.422086122349    -0.001521608072     1.007825032230
      Gh(H)           1.797527795079    -2.061881122349    -0.385394608072     1.007825032230
      Gh(H)           5.417566795079     0.440997877651     0.488394391928     1.007825032230
      Gh(H)           4.590909795079    -0.979517122349     1.195577391928     1.007825032230
      Gh(H)           6.087114795079    -1.200504122349     0.240901391928     1.007825032230
         O           -3.124294404921    -0.526742922349    -2.472694008072    15.994914619570
         H           -3.519558404921    -1.263736922349    -1.999332008072     1.007825032230
         H           -3.822202404921     0.096669077651    -2.679418008072     1.007825032230

  Running in c1 symmetry.

  Rotational constants: A =      0.02552  B =      0.00728  C =      0.00688 [cm^-1]
  Rotational constants: A =    765.06550  B =    218.24166  C =    206.22064 [MHz]
  Nuclear repulsion =    9.163953061555420

  Charge       = 0
  Multiplicity = 1
  Electrons    = 10
  Nalpha       = 5
  Nbeta        = 5

  ==> Algorithm <==

  SCF Algorithm Type is DF.
  DIIS enabled.
  MOM disabled.
  Fractional occupation disabled.
  Guess Type is SAD.
  Energy threshold   = 1.00e-06
  Density threshold  = 1.00e-06
  Integral threshold = 0.00e+00

  ==> Primary Basis <==

  Basis Set: AUG-CC-PVDZ
    Blend: AUG-CC-PVDZ
    Number of shells: 200
    Number of basis function: 476
    Number of Cartesian functions: 510
    Spherical Harmonics?: true
    Max angular momentum: 2

  ==> DFT Potential <==

   => Composite Functional: WB97X-D <= 

    wB97X-D Hyb-GGA Exchange-Correlation Functional

    J.-D. Chai and M. Head-Gordon, Phys. Chem. Chem. Phys. 10, 6615 (2008)

    Deriv               =              1
    GGA                 =           TRUE
    Meta                =          FALSE

    Exchange Hybrid     =           TRUE
    MP2 Hybrid          =          FALSE

   => Exchange-Correlation Functionals <=

    1.0000   wB97D range-separated functional

   => Exact (HF) Exchange <=

    0.7780            HF,LR [omega = 0.2000]
    0.2220               HF 

   => Molecular Quadrature <=

    Radial Scheme          =       TREUTLER
    Pruning Scheme         =           FLAT
    Nuclear Scheme         =       TREUTLER

    BS radius alpha        =              1
    Pruning alpha          =              1
    Radial Points          =             75
    Spherical Points       =            302
    Total Points           =         588900
    Total Blocks           =           4345
    Max Points             =            256
    Max Functions          =            429

   => WB97X-D: Empirical Dispersion <=

    Chai and Head-Gordon Dispersion Correction
    Chai, J.-D.; Head-Gordon, M. (2010), J. Chem. Phys., 132: 6615-6620

        s6 =       1.000000

   => Loading Basis Set <=

    Name: (AUG-CC-PVDZ AUX)
    Role: JKFIT
    Keyword: DF_BASIS_SCF
    atoms 1             entry N          line   212 file /fsx/users/francis/anaconda3/envs/poltype-dev/share/psi4/basis/aug-cc-pvdz-jkfit.gbs 
    atoms 2-3, 6-12, 14 entry C          line   154 file /fsx/users/francis/anaconda3/envs/poltype-dev/share/psi4/basis/aug-cc-pvdz-jkfit.gbs 
    atoms 4-5           entry F          line   328 file /fsx/users/francis/anaconda3/envs/poltype-dev/share/psi4/basis/aug-cc-pvdz-jkfit.gbs 
    atoms 13            entry S          line   690 file /fsx/users/francis/anaconda3/envs/poltype-dev/share/psi4/basis/aug-cc-pvdz-jkfit.gbs 
    atoms 15-16, 24     entry O          line   270 file /fsx/users/francis/anaconda3/envs/poltype-dev/share/psi4/basis/aug-cc-pvdz-jkfit.gbs 
    atoms 17-23, 25-26  entry H          line    70 file /fsx/users/francis/anaconda3/envs/poltype-dev/share/psi4/basis/aug-cc-pvdz-jkfit.gbs 

  ==> Pre-Iterations <==

   -------------------------------------------------------
    Irrep   Nso     Nmo     Nalpha   Nbeta   Ndocc  Nsocc
   -------------------------------------------------------
     A        476     476       0       0       0       0
   -------------------------------------------------------
    Total     476     476       5       5       5       0
   -------------------------------------------------------

  ==> Integral Setup <==

  ==> DiskDFJK: Density-Fitted J/K Matrices <==

    J tasked:                  Yes
    K tasked:                  Yes
    wK tasked:                 Yes
    Omega:               2.000E-01
    OpenMP threads:              8
    Integrals threads:           8
    Memory [MiB]:             5962
    Algorithm:                Core
    Integral Cache:           NONE
    Schwarz Cutoff:          1E-12
    Fitting Condition:       1E-10

   => Auxiliary Basis Set <=

  Basis Set: (AUG-CC-PVDZ AUX)
    Blend: AUG-CC-PVDZ-JKFIT
    Number of shells: 596
    Number of basis function: 1792
    Number of Cartesian functions: 2081
    Spherical Harmonics?: true
    Max angular momentum: 3

  Cached 100.0% of DFT collocation blocks in 5.353 [GiB].

  Minimum eigenvalue in the overlap matrix is 1.4599793479E-06.
  Using Symmetric Orthogonalization.

  SCF Guess: Superposition of Atomic Densities via on-the-fly atomic UHF.

  ==> Iterations <==

                           Total Energy        Delta E     RMS |[F,P]|

   @DF-RKS iter SAD:   -75.95299599714637   -7.59530e+01   0.00000e+00 
   @DF-RKS iter   1:   -69.53163809575570    6.42136e+00   2.64362e-03 DIIS
   @DF-RKS iter   2:   -74.01105237196313   -4.47941e+00   5.03145e-03 DIIS
   @DF-RKS iter   3:   -75.59280705212630   -1.58175e+00   3.01924e-03 DIIS
   @DF-RKS iter   4:   -76.22995004749491   -6.37143e-01   1.41773e-03 DIIS
   @DF-RKS iter   5:   -76.41914437347864   -1.89194e-01   6.31384e-05 DIIS
   @DF-RKS iter   6:   -76.41964797979264   -5.03606e-04   2.90618e-05 DIIS
   @DF-RKS iter   7:   -76.41976833705147   -1.20357e-04   2.94640e-06 DIIS
   @DF-RKS iter   8:   -76.41976979623857   -1.45919e-06   7.85542e-07 DIIS
   @DF-RKS iter   9:   -76.41976988004454   -8.38060e-08   1.02642e-07 DIIS
  Energy and wave function converged.


  ==> Post-Iterations <==

    Orbital Energies [Eh]
    ---------------------

    Doubly Occupied:                                                      

       1A    -19.278394     2A     -1.119475     3A     -0.631562  
       4A     -0.478661     5A     -0.406609  

    Virtual:                                                              

       6A      0.021350     7A      0.030066     8A      0.037444  
       9A      0.045214    10A      0.050615    11A      0.054541  
      12A      0.059285    13A      0.067273    14A      0.075293  
      15A      0.076767    16A      0.081449    17A      0.088329  
      18A      0.091714    19A      0.097160    20A      0.102128  
      21A      0.106115    22A      0.108850    23A      0.115550  
      24A      0.122206    25A      0.124376    26A      0.132759  
      27A      0.138128    28A      0.139314    29A      0.142344  
      30A      0.148103    31A      0.155956    32A      0.159019  
      33A      0.160909    34A      0.165002    35A      0.167301  
      36A      0.172801    37A      0.176872    38A      0.179417  
      39A      0.182623    40A      0.189625    41A      0.195659  
      42A      0.197640    43A      0.201142    44A      0.206410  
      45A      0.210801    46A      0.213251    47A      0.217803  
      48A      0.220149    49A      0.226135    50A      0.231962  
      51A      0.234302    52A      0.237465    53A      0.239151  
      54A      0.246802    55A      0.249272    56A      0.262266  
      57A      0.263796    58A      0.267573    59A      0.272693  
      60A      0.281147    61A      0.286271    62A      0.287647  
      63A      0.289481    64A      0.293539    65A      0.302303  
      66A      0.308866    67A      0.315177    68A      0.319554  
      69A      0.324634    70A      0.335180    71A      0.339937  
      72A      0.342498    73A      0.344320    74A      0.352734  
      75A      0.357203    76A      0.363514    77A      0.366357  
      78A      0.372682    79A      0.376156    80A      0.381995  
      81A      0.386588    82A      0.395922    83A      0.398310  
      84A      0.404796    85A      0.406361    86A      0.411592  
      87A      0.413824    88A      0.422235    89A      0.429154  
      90A      0.434227    91A      0.436598    92A      0.445479  
      93A      0.451408    94A      0.457757    95A      0.459970  
      96A      0.464253    97A      0.468619    98A      0.475018  
      99A      0.477858   100A      0.479760   101A      0.488725  
     102A      0.488971   103A      0.507775   104A      0.508693  
     105A      0.519178   106A      0.521655   107A      0.524087  
     108A      0.529658   109A      0.534362   110A      0.539722  
     111A      0.545198   112A      0.553858   113A      0.555914  
     114A      0.558845   115A      0.564128   116A      0.573423  
     117A      0.577772   118A      0.580964   119A      0.584099  
     120A      0.600650   121A      0.604180   122A      0.614519  
     123A      0.618474   124A      0.621515   125A      0.624358  
     126A      0.629410   127A      0.637752   128A      0.643741  
     129A      0.649272   130A      0.659570   131A      0.661229  
     132A      0.666153   133A      0.674901   134A      0.679553  
     135A      0.681031   136A      0.692217   137A      0.697336  
     138A      0.709455   139A      0.715021   140A      0.718388  
     141A      0.719744   142A      0.735810   143A      0.741495  
     144A      0.748445   145A      0.753688   146A      0.755961  
     147A      0.761993   148A      0.766862   149A      0.776139  
     150A      0.789027   151A      0.792324   152A      0.801550  
     153A      0.806622   154A      0.813735   155A      0.817933  
     156A      0.824306   157A      0.834052   158A      0.837844  
     159A      0.846009   160A      0.848885   161A      0.855290  
     162A      0.860953   163A      0.867022   164A      0.867255  
     165A      0.880534   166A      0.884655   167A      0.891262  
     168A      0.896487   169A      0.899433   170A      0.909986  
     171A      0.921599   172A      0.923804   173A      0.937432  
     174A      0.949798   175A      0.952439   176A      0.961111  
     177A      0.964940   178A      0.973508   179A      0.976684  
     180A      0.981840   181A      0.986637   182A      0.994110  
     183A      1.002765   184A      1.009397   185A      1.017490  
     186A      1.021570   187A      1.033119   188A      1.042926  
     189A      1.047483   190A      1.063979   191A      1.068724  
     192A      1.078321   193A      1.080783   194A      1.090072  
     195A      1.096027   196A      1.102500   197A      1.111342  
     198A      1.129393   199A      1.134985   200A      1.152994  
     201A      1.158953   202A      1.163651   203A      1.176862  
     204A      1.190077   205A      1.202117   206A      1.205678  
     207A      1.214065   208A      1.225602   209A      1.231549  
     210A      1.244709   211A      1.251012   212A      1.257079  
     213A      1.270691   214A      1.276649   215A      1.292681  
     216A      1.306372   217A      1.319789   218A      1.326832  
     219A      1.334526   220A      1.344462   221A      1.350298  
     222A      1.361363   223A      1.369730   224A      1.387334  
     225A      1.404179   226A      1.414075   227A      1.423066  
     228A      1.429213   229A      1.444270   230A      1.448219  
     231A      1.469753   232A      1.483658   233A      1.484859  
     234A      1.490669   235A      1.506142   236A      1.515921  
     237A      1.529435   238A      1.547210   239A      1.559589  
     240A      1.569002   241A      1.580855   242A      1.585759  
     243A      1.597500   244A      1.617054   245A      1.626533  
     246A      1.639980   247A      1.657907   248A      1.670882  
     249A      1.685175   250A      1.705329   251A      1.707915  
     252A      1.725142   253A      1.748489   254A      1.773237  
     255A      1.787297   256A      1.793878   257A      1.807691  
     258A      1.832157   259A      1.851196   260A      1.875712  
     261A      1.888885   262A      1.896144   263A      1.906826  
     264A      1.922014   265A      1.936754   266A      1.962768  
     267A      1.973670   268A      1.979263   269A      2.004767  
     270A      2.039891   271A      2.052968   272A      2.068527  
     273A      2.079909   274A      2.081522   275A      2.094044  
     276A      2.113384   277A      2.123418   278A      2.145957  
     279A      2.157382   280A      2.178651   281A      2.182724  
     282A      2.188322   283A      2.203183   284A      2.214729  
     285A      2.226329   286A      2.232895   287A      2.239233  
     288A      2.252147   289A      2.258196   290A      2.267391  
     291A      2.271838   292A      2.276740   293A      2.287735  
     294A      2.290187   295A      2.306413   296A      2.311332  
     297A      2.316128   298A      2.325520   299A      2.334273  
     300A      2.346442   301A      2.351030   302A      2.363167  
     303A      2.371449   304A      2.377887   305A      2.386700  
     306A      2.411219   307A      2.415368   308A      2.424631  
     309A      2.429957   310A      2.444017   311A      2.454985  
     312A      2.463780   313A      2.500825   314A      2.510087  
     315A      2.523765   316A      2.559065   317A      2.566057  
     318A      2.576630   319A      2.588368   320A      2.604152  
     321A      2.612604   322A      2.615995   323A      2.633452  
     324A      2.644719   325A      2.651596   326A      2.678820  
     327A      2.685534   328A      2.713728   329A      2.742779  
     330A      2.750180   331A      2.756432   332A      2.782325  
     333A      2.801694   334A      2.820335   335A      2.825203  
     336A      2.840734   337A      2.850195   338A      2.859506  
     339A      2.875469   340A      2.886795   341A      2.894246  
     342A      2.913404   343A      2.924906   344A      2.959314  
     345A      2.978383   346A      2.994460   347A      3.013790  
     348A      3.030166   349A      3.036155   350A      3.064454  
     351A      3.080391   352A      3.095973   353A      3.132049  
     354A      3.138905   355A      3.163495   356A      3.191795  
     357A      3.253875   358A      3.265451   359A      3.274518  
     360A      3.284524   361A      3.288428   362A      3.308748  
     363A      3.330154   364A      3.360432   365A      3.375416  
     366A      3.430577   367A      3.440643   368A      3.450407  
     369A      3.460000   370A      3.469534   371A      3.492465  
     372A      3.503159   373A      3.532571   374A      3.552578  
     375A      3.578519   376A      3.612026   377A      3.654332  
     378A      3.676610   379A      3.705082   380A      3.726608  
     381A      3.765975   382A      3.795691   383A      3.821056  
     384A      3.866537   385A      3.903737   386A      3.946505  
     387A      3.988007   388A      3.996943   389A      4.027529  
     390A      4.043178   391A      4.082270   392A      4.144569  
     393A      4.195785   394A      4.238052   395A      4.319912  
     396A      4.342776   397A      4.380300   398A      4.382532  
     399A      4.475467   400A      4.515495   401A      4.532897  
     402A      4.595517   403A      4.640152   404A      4.679429  
     405A      4.725261   406A      4.772259   407A      4.852613  
     408A      4.894434   409A      4.931488   410A      4.981975  
     411A      5.022744   412A      5.047613   413A      5.057460  
     414A      5.067350   415A      5.072504   416A      5.085816  
     417A      5.093846   418A      5.103780   419A      5.126856  
     420A      5.208308   421A      5.270347   422A      5.274122  
     423A      5.316672   424A      5.375191   425A      5.400139  
     426A      5.444340   427A      5.465520   428A      5.528392  
     429A      5.626655   430A      5.822107   431A      5.978477  
     432A      6.036218   433A      6.042935   434A      6.141099  
     435A      6.163756   436A      6.205136   437A      6.443186  
     438A      6.500727   439A      6.816169   440A      6.835054  
     441A      6.865118   442A      6.872295   443A      6.889868  
     444A      6.916236   445A      6.936305   446A      6.956635  
     447A      6.968497   448A      6.983823   449A      7.039476  
     450A      7.047328   451A      7.111575   452A      7.810226  
     453A      7.932366   454A      7.985155   455A      8.124497  
     456A      8.150747   457A      8.239672   458A     18.006527  
     459A     18.423581   460A     18.563184   461A     18.614692  
     462A     18.791199   463A     18.890441   464A     19.165946  
     465A     19.367706   466A     19.640477   467A     20.602994  
     468A     20.750099   469A     20.893480   470A     21.432138  
     471A     25.490768   472A     33.544170   473A     33.553675  
     474A     43.016145   475A     43.024359   476A    138.004822  

    Final Occupation by Irrep:
              A 
    DOCC [     5 ]

  @DF-RKS Final Energy:   -76.41976988004454

   => Energetics <=

    Nuclear Repulsion Energy =              9.1639530615554197
    One-Electron Energy =                -122.9437597775041411
    Two-Electron Energy =                  43.8326616435481498
    DFT Exchange-Correlation Energy =      -6.4725940879719026
    Empirical Dispersion Energy =          -0.0000307196720609
    VV10 Nonlocal Energy =                  0.0000000000000000
    Total Energy =                        -76.4197698800445266

Computation Completed


Properties will be evaluated at   0.000000,  -0.000000,   0.000000 [a0]

Properties computed using the SCF density matrix

  Nuclear Dipole Moment: [e a0]
     X:   -61.1064      Y:   -10.1686      Z:   -46.2233

  Electronic Dipole Moment: [e a0]
     X:    60.4086      Y:    10.0966      Z:    46.3937

  Dipole Moment: [e a0]
     X:    -0.6978      Y:    -0.0721      Z:     0.1704     Total:     0.7219

  Dipole Moment: [D]
     X:    -1.7736      Y:    -0.1832      Z:     0.4331     Total:     1.8349


*** tstop() called on cpu-spot-dy-c5n2xlarge-1 at Tue Jun 22 14:36:24 2021
Module time:
	user time   =     747.84 seconds =      12.46 minutes
	system time =       6.97 seconds =       0.12 minutes
	total time  =        101 seconds =       1.68 minutes
Total time:
	user time   =     756.02 seconds =      12.60 minutes
	system time =       7.18 seconds =       0.12 minutes
	total time  =        102 seconds =       1.70 minutes

       N-Body: Complex Energy (fragments = (2,), basis = (1, 2):   -76.41976988004454)

       N-Body: Computing complex (3/4) with fragments (1,) in the basis of fragments (1, 2).


*** tstart() called on cpu-spot-dy-c5n2xlarge-1
*** at Tue Jun 22 14:36:24 2021

   => Loading Basis Set <=

    Name: AUG-CC-PVDZ
    Role: ORBITAL
    Keyword: BASIS
    atoms 1             entry N          line   214 file /fsx/users/francis/anaconda3/envs/poltype-dev/share/psi4/basis/aug-cc-pvdz.gbs 
    atoms 2-3, 6-12, 14 entry C          line   178 file /fsx/users/francis/anaconda3/envs/poltype-dev/share/psi4/basis/aug-cc-pvdz.gbs 
    atoms 4-5           entry F          line   286 file /fsx/users/francis/anaconda3/envs/poltype-dev/share/psi4/basis/aug-cc-pvdz.gbs 
    atoms 13            entry S          line   698 file /fsx/users/francis/anaconda3/envs/poltype-dev/share/psi4/basis/aug-cc-pvdz.gbs 
    atoms 15-16, 24     entry O          line   250 file /fsx/users/francis/anaconda3/envs/poltype-dev/share/psi4/basis/aug-cc-pvdz.gbs 
    atoms 17-23, 25-26  entry H          line    36 file /fsx/users/francis/anaconda3/envs/poltype-dev/share/psi4/basis/aug-cc-pvdz.gbs 


         ---------------------------------------------------------
                                   SCF
               by Justin Turney, Rob Parrish, Andy Simmonett
                          and Daniel G. A. Smith
                              RKS Reference
                        8 Threads,  15258 MiB Core
         ---------------------------------------------------------

  ==> Geometry <==

    Molecular point group: c1
    Full point group: C1

    Geometry (in Angstrom), charge = 0, multiplicity = 1:

       Center              X                  Y                   Z               Mass       
    ------------   -----------------  -----------------  -----------------  -----------------
         N           -0.732348204921    -1.444313122349     0.217892391928    14.003074004430
         C           -2.013965204921    -1.155996122349     0.609422391928    12.000000000000
         C           -2.266688204921     0.329179877651     1.029551391928    12.000000000000
         F           -3.551003204921     0.684068877651     0.663176391928    18.998403162730
         F           -2.201287204921     0.380539877651     2.403111391928    18.998403162730
         C           -1.259701204921     1.384031877651     0.457146391928    12.000000000000
         C            0.068451795079     0.874239877651     0.041531391928    12.000000000000
         C            1.080631795079     1.770592877651    -0.366964608072    12.000000000000
         C            2.347741795079     1.303573877651    -0.739061608072    12.000000000000
         C            2.624836795079    -0.088173122349    -0.734117608072    12.000000000000
         C            1.596458795079    -0.989741122349    -0.384064608072    12.000000000000
         C            0.321679795079    -0.526148122349    -0.016471608072    12.000000000000
         S            4.188317795079    -0.790321122349    -1.170913608072    31.972071174400
         C            5.168739795079    -0.614282122349     0.340931391928    12.000000000000
         O           -2.872236204921    -2.032168122349     0.629057391928    15.994914619570
         O           -1.531455204921     2.581576877651     0.458736391928    15.994914619570
         H            3.108525795079     2.029872877651    -1.023784608072     1.007825032230
         H            0.854267795079     2.837216877651    -0.372594608072     1.007825032230
         H           -0.601496204921    -2.422086122349    -0.001521608072     1.007825032230
         H            1.797527795079    -2.061881122349    -0.385394608072     1.007825032230
         H            5.417566795079     0.440997877651     0.488394391928     1.007825032230
         H            4.590909795079    -0.979517122349     1.195577391928     1.007825032230
         H            6.087114795079    -1.200504122349     0.240901391928     1.007825032230
      Gh(O)          -3.124294404921    -0.526742922349    -2.472694008072    15.994914619570
      Gh(H)          -3.519558404921    -1.263736922349    -1.999332008072     1.007825032230
      Gh(H)          -3.822202404921     0.096669077651    -2.679418008072     1.007825032230

  Running in c1 symmetry.

  Rotational constants: A =      0.02552  B =      0.00728  C =      0.00688 [cm^-1]
  Rotational constants: A =    765.06550  B =    218.24166  C =    206.22064 [MHz]
  Nuclear repulsion = 1178.808827492630826

  Charge       = 0
  Multiplicity = 1
  Electrons    = 124
  Nalpha       = 62
  Nbeta        = 62

  ==> Algorithm <==

  SCF Algorithm Type is DF.
  DIIS enabled.
  MOM disabled.
  Fractional occupation disabled.
  Guess Type is SAD.
  Energy threshold   = 1.00e-06
  Density threshold  = 1.00e-06
  Integral threshold = 0.00e+00

  ==> Primary Basis <==

  Basis Set: AUG-CC-PVDZ
    Blend: AUG-CC-PVDZ
    Number of shells: 200
    Number of basis function: 476
    Number of Cartesian functions: 510
    Spherical Harmonics?: true
    Max angular momentum: 2

  ==> DFT Potential <==

   => Composite Functional: WB97X-D <= 

    wB97X-D Hyb-GGA Exchange-Correlation Functional

    J.-D. Chai and M. Head-Gordon, Phys. Chem. Chem. Phys. 10, 6615 (2008)

    Deriv               =              1
    GGA                 =           TRUE
    Meta                =          FALSE

    Exchange Hybrid     =           TRUE
    MP2 Hybrid          =          FALSE

   => Exchange-Correlation Functionals <=

    1.0000   wB97D range-separated functional

   => Exact (HF) Exchange <=

    0.7780            HF,LR [omega = 0.2000]
    0.2220               HF 

   => Molecular Quadrature <=

    Radial Scheme          =       TREUTLER
    Pruning Scheme         =           FLAT
    Nuclear Scheme         =       TREUTLER

    BS radius alpha        =              1
    Pruning alpha          =              1
    Radial Points          =             75
    Spherical Points       =            302
    Total Points           =         588900
    Total Blocks           =           4345
    Max Points             =            256
    Max Functions          =            429

   => WB97X-D: Empirical Dispersion <=

    Chai and Head-Gordon Dispersion Correction
    Chai, J.-D.; Head-Gordon, M. (2010), J. Chem. Phys., 132: 6615-6620

        s6 =       1.000000

   => Loading Basis Set <=

    Name: (AUG-CC-PVDZ AUX)
    Role: JKFIT
    Keyword: DF_BASIS_SCF
    atoms 1             entry N          line   212 file /fsx/users/francis/anaconda3/envs/poltype-dev/share/psi4/basis/aug-cc-pvdz-jkfit.gbs 
    atoms 2-3, 6-12, 14 entry C          line   154 file /fsx/users/francis/anaconda3/envs/poltype-dev/share/psi4/basis/aug-cc-pvdz-jkfit.gbs 
    atoms 4-5           entry F          line   328 file /fsx/users/francis/anaconda3/envs/poltype-dev/share/psi4/basis/aug-cc-pvdz-jkfit.gbs 
    atoms 13            entry S          line   690 file /fsx/users/francis/anaconda3/envs/poltype-dev/share/psi4/basis/aug-cc-pvdz-jkfit.gbs 
    atoms 15-16, 24     entry O          line   270 file /fsx/users/francis/anaconda3/envs/poltype-dev/share/psi4/basis/aug-cc-pvdz-jkfit.gbs 
    atoms 17-23, 25-26  entry H          line    70 file /fsx/users/francis/anaconda3/envs/poltype-dev/share/psi4/basis/aug-cc-pvdz-jkfit.gbs 

  ==> Pre-Iterations <==

   -------------------------------------------------------
    Irrep   Nso     Nmo     Nalpha   Nbeta   Ndocc  Nsocc
   -------------------------------------------------------
     A        476     476       0       0       0       0
   -------------------------------------------------------
    Total     476     476      62      62      62       0
   -------------------------------------------------------

  ==> Integral Setup <==

  ==> DiskDFJK: Density-Fitted J/K Matrices <==

    J tasked:                  Yes
    K tasked:                  Yes
    wK tasked:                 Yes
    Omega:               2.000E-01
    OpenMP threads:              8
    Integrals threads:           8
    Memory [MiB]:             5962
    Algorithm:                Core
    Integral Cache:           NONE
    Schwarz Cutoff:          1E-12
    Fitting Condition:       1E-10

   => Auxiliary Basis Set <=

  Basis Set: (AUG-CC-PVDZ AUX)
    Blend: AUG-CC-PVDZ-JKFIT
    Number of shells: 596
    Number of basis function: 1792
    Number of Cartesian functions: 2081
    Spherical Harmonics?: true
    Max angular momentum: 3

  Cached 100.0% of DFT collocation blocks in 5.353 [GiB].

  Minimum eigenvalue in the overlap matrix is 1.4599793479E-06.
  Using Symmetric Orthogonalization.

  SCF Guess: Superposition of Atomic Densities via on-the-fly atomic UHF.

  ==> Iterations <==

                           Total Energy        Delta E     RMS |[F,P]|

   @DF-RKS iter SAD: -1187.39349175727193   -1.18739e+03   0.00000e+00 
   @DF-RKS iter   1: -1187.69062882681555   -2.97137e-01   2.21166e-03 DIIS
   @DF-RKS iter   2: -1187.69853847674744   -7.90965e-03   2.40455e-03 DIIS
   @DF-RKS iter   3: -1188.17427206672937   -4.75734e-01   5.68158e-04 DIIS
   @DF-RKS iter   4: -1188.20269555137361   -2.84235e-02   1.48220e-04 DIIS
   @DF-RKS iter   5: -1188.20489532993884   -2.19978e-03   4.24245e-05 DIIS
   @DF-RKS iter   6: -1188.20511897446272   -2.23645e-04   1.43968e-05 DIIS
   @DF-RKS iter   7: -1188.20514528957392   -2.63151e-05   4.45416e-06 DIIS
   @DF-RKS iter   8: -1188.20515029891158   -5.00934e-06   1.60125e-06 DIIS
   @DF-RKS iter   9: -1188.20515153328506   -1.23437e-06   9.81047e-07 DIIS
   @DF-RKS iter  10: -1188.20515176052254   -2.27237e-07   3.74279e-07 DIIS
  Energy and wave function converged.


  ==> Post-Iterations <==

    Orbital Energies [Eh]
    ---------------------

    Doubly Occupied:                                                      

       1A    -89.069896     2A    -24.879956     3A    -24.867913  
       4A    -19.304424     5A    -19.288140     6A    -14.536536  
       7A    -10.509244     8A    -10.455477     9A    -10.436304  
      10A    -10.407736    11A    -10.379049    12A    -10.356628  
      13A    -10.352284    14A    -10.350058    15A    -10.345602  
      16A    -10.343914    17A     -8.087399    18A     -6.037275  
      19A     -6.033137    20A     -6.026174    21A     -1.385561  
      22A     -1.327114    23A     -1.188890    24A     -1.180965  
      25A     -1.093621    26A     -1.000420    27A     -0.938460  
      28A     -0.904068    29A     -0.888566    30A     -0.866800  
      31A     -0.792571    32A     -0.765718    33A     -0.752312  
      34A     -0.740051    35A     -0.695922    36A     -0.678039  
      37A     -0.668647    38A     -0.643475    39A     -0.628955  
      40A     -0.591262    41A     -0.579800    42A     -0.568658  
      43A     -0.562495    44A     -0.557438    45A     -0.555498  
      46A     -0.548667    47A     -0.539256    48A     -0.533788  
      49A     -0.527407    50A     -0.516707    51A     -0.512093  
      52A     -0.500527    53A     -0.494251    54A     -0.480467  
      55A     -0.474048    56A     -0.440847    57A     -0.420373  
      58A     -0.397730    59A     -0.371874    60A     -0.368289  
      61A     -0.340266    62A     -0.332460  

    Virtual:                                                              

      63A     -0.057369    64A      0.006614    65A      0.023990  
      66A      0.031959    67A      0.036153    68A      0.040032  
      69A      0.048752    70A      0.050029    71A      0.057430  
      72A      0.060263    73A      0.066311    74A      0.074825  
      75A      0.077303    76A      0.083362    77A      0.087119  
      78A      0.092286    79A      0.101020    80A      0.104331  
      81A      0.106838    82A      0.107949    83A      0.114554  
      84A      0.117098    85A      0.123589    86A      0.126303  
      87A      0.131982    88A      0.135006    89A      0.136923  
      90A      0.139666    91A      0.148047    92A      0.152609  
      93A      0.153744    94A      0.156659    95A      0.164048  
      96A      0.166622    97A      0.167641    98A      0.169580  
      99A      0.173854   100A      0.177628   101A      0.178484  
     102A      0.182846   103A      0.187255   104A      0.191948  
     105A      0.198175   106A      0.200443   107A      0.201845  
     108A      0.209904   109A      0.211188   110A      0.215959  
     111A      0.218663   112A      0.223555   113A      0.228375  
     114A      0.231693   115A      0.232695   116A      0.239025  
     117A      0.243211   118A      0.247087   119A      0.252697  
     120A      0.255748   121A      0.259235   122A      0.262965  
     123A      0.269296   124A      0.269890   125A      0.274042  
     126A      0.276509   127A      0.278362   128A      0.283465  
     129A      0.286850   130A      0.289151   131A      0.296037  
     132A      0.298088   133A      0.306393   134A      0.307232  
     135A      0.309762   136A      0.319208   137A      0.321883  
     138A      0.325796   139A      0.329991   140A      0.334359  
     141A      0.343383   142A      0.345339   143A      0.348035  
     144A      0.350411   145A      0.360641   146A      0.364881  
     147A      0.368194   148A      0.369338   149A      0.371774  
     150A      0.373335   151A      0.376495   152A      0.381568  
     153A      0.383895   154A      0.391128   155A      0.391795  
     156A      0.401724   157A      0.406359   158A      0.409319  
     159A      0.413684   160A      0.417812   161A      0.422373  
     162A      0.429491   163A      0.434330   164A      0.439760  
     165A      0.442681   166A      0.444286   167A      0.455601  
     168A      0.461083   169A      0.466854   170A      0.470801  
     171A      0.476732   172A      0.477535   173A      0.486865  
     174A      0.490112   175A      0.493654   176A      0.500089  
     177A      0.501721   178A      0.504589   179A      0.514329  
     180A      0.517813   181A      0.519893   182A      0.529515  
     183A      0.530329   184A      0.537736   185A      0.538585  
     186A      0.541428   187A      0.549345   188A      0.550582  
     189A      0.561809   190A      0.563855   191A      0.569879  
     192A      0.576073   193A      0.581616   194A      0.587593  
     195A      0.593884   196A      0.595801   197A      0.600261  
     198A      0.608405   199A      0.617053   200A      0.619677  
     201A      0.626135   202A      0.630079   203A      0.633790  
     204A      0.638455   205A      0.642175   206A      0.645724  
     207A      0.649326   208A      0.654611   209A      0.658373  
     210A      0.665484   211A      0.666902   212A      0.672822  
     213A      0.680722   214A      0.680944   215A      0.687247  
     216A      0.695147   217A      0.700544   218A      0.702849  
     219A      0.704905   220A      0.712694   221A      0.721465  
     222A      0.723578   223A      0.739364   224A      0.744513  
     225A      0.749482   226A      0.761160   227A      0.764566  
     228A      0.773846   229A      0.776966   230A      0.779473  
     231A      0.791403   232A      0.794193   233A      0.801275  
     234A      0.807442   235A      0.812714   236A      0.815871  
     237A      0.827866   238A      0.830767   239A      0.836876  
     240A      0.845545   241A      0.846592   242A      0.852878  
     243A      0.861294   244A      0.865336   245A      0.874391  
     246A      0.881441   247A      0.891052   248A      0.901366  
     249A      0.908341   250A      0.918803   251A      0.923860  
     252A      0.936963   253A      0.946164   254A      0.952057  
     255A      0.959688   256A      0.967973   257A      0.982779  
     258A      0.989768   259A      0.995525   260A      1.005227  
     261A      1.017475   262A      1.022714   263A      1.028551  
     264A      1.037016   265A      1.042737   266A      1.054100  
     267A      1.065510   268A      1.069841   269A      1.079793  
     270A      1.095403   271A      1.101330   272A      1.117122  
     273A      1.119178   274A      1.135598   275A      1.140360  
     276A      1.143036   277A      1.148730   278A      1.157083  
     279A      1.170710   280A      1.178570   281A      1.190506  
     282A      1.193722   283A      1.210753   284A      1.217664  
     285A      1.221759   286A      1.226934   287A      1.246334  
     288A      1.265654   289A      1.269661   290A      1.280473  
     291A      1.292577   292A      1.296096   293A      1.309070  
     294A      1.311659   295A      1.314387   296A      1.322677  
     297A      1.335644   298A      1.343909   299A      1.346171  
     300A      1.357417   301A      1.359686   302A      1.364370  
     303A      1.380616   304A      1.384991   305A      1.398637  
     306A      1.399792   307A      1.408900   308A      1.416426  
     309A      1.422033   310A      1.434473   311A      1.446096  
     312A      1.464935   313A      1.471555   314A      1.472264  
     315A      1.475125   316A      1.502307   317A      1.504222  
     318A      1.511349   319A      1.521046   320A      1.537961  
     321A      1.546952   322A      1.548163   323A      1.554703  
     324A      1.557680   325A      1.568906   326A      1.576320  
     327A      1.587274   328A      1.601082   329A      1.606920  
     330A      1.609515   331A      1.613392   332A      1.628093  
     333A      1.631741   334A      1.639369   335A      1.652111  
     336A      1.661912   337A      1.665152   338A      1.677383  
     339A      1.680113   340A      1.698449   341A      1.700416  
     342A      1.707130   343A      1.721720   344A      1.738311  
     345A      1.747783   346A      1.757892   347A      1.766164  
     348A      1.767611   349A      1.786522   350A      1.791844  
     351A      1.810831   352A      1.819433   353A      1.831202  
     354A      1.833598   355A      1.852305   356A      1.855035  
     357A      1.869664   358A      1.876985   359A      1.879884  
     360A      1.891080   361A      1.902602   362A      1.911343  
     363A      1.921626   364A      1.932981   365A      1.944440  
     366A      1.950789   367A      1.963515   368A      1.970709  
     369A      1.981234   370A      1.991954   371A      1.995899  
     372A      2.007948   373A      2.019286   374A      2.031361  
     375A      2.043332   376A      2.056360   377A      2.065547  
     378A      2.075348   379A      2.086321   380A      2.090664  
     381A      2.099837   382A      2.109976   383A      2.129869  
     384A      2.139183   385A      2.154276   386A      2.170103  
     387A      2.176623   388A      2.191232   389A      2.202569  
     390A      2.204981   391A      2.226356   392A      2.231523  
     393A      2.241204   394A      2.284315   395A      2.290593  
     396A      2.312799   397A      2.322384   398A      2.333514  
     399A      2.335532   400A      2.346647   401A      2.354801  
     402A      2.357747   403A      2.369726   404A      2.392415  
     405A      2.414038   406A      2.421760   407A      2.445370  
     408A      2.483586   409A      2.489683   410A      2.503195  
     411A      2.536989   412A      2.559303   413A      2.572905  
     414A      2.594054   415A      2.604806   416A      2.614393  
     417A      2.626405   418A      2.638903   419A      2.667546  
     420A      2.686214   421A      2.697432   422A      2.700170  
     423A      2.713173   424A      2.728385   425A      2.753619  
     426A      2.776566   427A      2.822393   428A      2.859235  
     429A      2.951316   430A      2.979002   431A      3.014910  
     432A      3.033858   433A      3.107919   434A      3.165339  
     435A      3.175253   436A      3.383904   437A      3.388978  
     438A      3.401364   439A      3.439235   440A      3.475003  
     441A      3.484379   442A      3.499588   443A      3.510884  
     444A      3.518181   445A      3.560870   446A      3.574352  
     447A      3.588128   448A      3.609752   449A      3.693863  
     450A      3.719321   451A      3.757891   452A      3.812446  
     453A      3.888831   454A      3.968289   455A      4.050970  
     456A      4.103971   457A      4.453988   458A      4.631254  
     459A      4.668004   460A      4.699224   461A      4.725991  
     462A      4.747828   463A      4.755979   464A      4.783891  
     465A      4.821107   466A      4.869929   467A      4.906081  
     468A      4.977619   469A      5.015848   470A      5.046320  
     471A      5.216968   472A      5.454377   473A      5.755092  
     474A      6.605763   475A      7.090404   476A     33.578048  

    Final Occupation by Irrep:
              A 
    DOCC [    62 ]

  @DF-RKS Final Energy: -1188.20515176052254

   => Energetics <=

    Nuclear Repulsion Energy =           1178.8088274926308259
    One-Electron Energy =               -3972.0472343949468268
    Two-Electron Energy =                1694.5850895051680709
    DFT Exchange-Correlation Energy =     -89.5383704373326736
    Empirical Dispersion Energy =          -0.0134639260419725
    VV10 Nonlocal Energy =                  0.0000000000000000
    Total Energy =                      -1188.2051517605225399

Computation Completed


Properties will be evaluated at   0.000000,  -0.000000,   0.000000 [a0]

Properties computed using the SCF density matrix

  Nuclear Dipole Moment: [e a0]
     X:    79.6520      Y:     6.7826      Z:    39.0390

  Electronic Dipole Moment: [e a0]
     X:   -77.0965      Y:    -7.2493      Z:   -39.2418

  Dipole Moment: [e a0]
     X:     2.5555      Y:    -0.4667      Z:    -0.2028     Total:     2.6057

  Dipole Moment: [D]
     X:     6.4954      Y:    -1.1863      Z:    -0.5154     Total:     6.6229


*** tstop() called on cpu-spot-dy-c5n2xlarge-1 at Tue Jun 22 14:38:26 2021
Module time:
	user time   =     896.92 seconds =      14.95 minutes
	system time =       8.88 seconds =       0.15 minutes
	total time  =        122 seconds =       2.03 minutes
Total time:
	user time   =    1652.98 seconds =      27.55 minutes
	system time =      16.06 seconds =       0.27 minutes
	total time  =        224 seconds =       3.73 minutes

       N-Body: Complex Energy (fragments = (1,), basis = (1, 2): -1188.20515176052254)

       N-Body: Computing complex (4/4) with fragments (1,) in the basis of fragments (1,).


*** tstart() called on cpu-spot-dy-c5n2xlarge-1
*** at Tue Jun 22 14:38:26 2021

   => Loading Basis Set <=

    Name: AUG-CC-PVDZ
    Role: ORBITAL
    Keyword: BASIS
    atoms 1             entry N          line   214 file /fsx/users/francis/anaconda3/envs/poltype-dev/share/psi4/basis/aug-cc-pvdz.gbs 
    atoms 2-3, 6-12, 14 entry C          line   178 file /fsx/users/francis/anaconda3/envs/poltype-dev/share/psi4/basis/aug-cc-pvdz.gbs 
    atoms 4-5           entry F          line   286 file /fsx/users/francis/anaconda3/envs/poltype-dev/share/psi4/basis/aug-cc-pvdz.gbs 
    atoms 13            entry S          line   698 file /fsx/users/francis/anaconda3/envs/poltype-dev/share/psi4/basis/aug-cc-pvdz.gbs 
    atoms 15-16         entry O          line   250 file /fsx/users/francis/anaconda3/envs/poltype-dev/share/psi4/basis/aug-cc-pvdz.gbs 
    atoms 17-23         entry H          line    36 file /fsx/users/francis/anaconda3/envs/poltype-dev/share/psi4/basis/aug-cc-pvdz.gbs 


         ---------------------------------------------------------
                                   SCF
               by Justin Turney, Rob Parrish, Andy Simmonett
                          and Daniel G. A. Smith
                              RKS Reference
                        8 Threads,  15258 MiB Core
         ---------------------------------------------------------

  ==> Geometry <==

    Molecular point group: c1
    Full point group: C1

    Geometry (in Angstrom), charge = 0, multiplicity = 1:

       Center              X                  Y                   Z               Mass       
    ------------   -----------------  -----------------  -----------------  -----------------
         N           -0.732348204921    -1.444313122349     0.217892391928    14.003074004430
         C           -2.013965204921    -1.155996122349     0.609422391928    12.000000000000
         C           -2.266688204921     0.329179877651     1.029551391928    12.000000000000
         F           -3.551003204921     0.684068877651     0.663176391928    18.998403162730
         F           -2.201287204921     0.380539877651     2.403111391928    18.998403162730
         C           -1.259701204921     1.384031877651     0.457146391928    12.000000000000
         C            0.068451795079     0.874239877651     0.041531391928    12.000000000000
         C            1.080631795079     1.770592877651    -0.366964608072    12.000000000000
         C            2.347741795079     1.303573877651    -0.739061608072    12.000000000000
         C            2.624836795079    -0.088173122349    -0.734117608072    12.000000000000
         C            1.596458795079    -0.989741122349    -0.384064608072    12.000000000000
         C            0.321679795079    -0.526148122349    -0.016471608072    12.000000000000
         S            4.188317795079    -0.790321122349    -1.170913608072    31.972071174400
         C            5.168739795079    -0.614282122349     0.340931391928    12.000000000000
         O           -2.872236204921    -2.032168122349     0.629057391928    15.994914619570
         O           -1.531455204921     2.581576877651     0.458736391928    15.994914619570
         H            3.108525795079     2.029872877651    -1.023784608072     1.007825032230
         H            0.854267795079     2.837216877651    -0.372594608072     1.007825032230
         H           -0.601496204921    -2.422086122349    -0.001521608072     1.007825032230
         H            1.797527795079    -2.061881122349    -0.385394608072     1.007825032230
         H            5.417566795079     0.440997877651     0.488394391928     1.007825032230
         H            4.590909795079    -0.979517122349     1.195577391928     1.007825032230
         H            6.087114795079    -1.200504122349     0.240901391928     1.007825032230

  Running in c1 symmetry.

  Rotational constants: A =      0.03497  B =      0.00826  C =      0.00731 [cm^-1]
  Rotational constants: A =   1048.28904  B =    247.64147  C =    219.04918 [MHz]
  Nuclear repulsion = 1178.808827492630826

  Charge       = 0
  Multiplicity = 1
  Electrons    = 124
  Nalpha       = 62
  Nbeta        = 62

  ==> Algorithm <==

  SCF Algorithm Type is DF.
  DIIS enabled.
  MOM disabled.
  Fractional occupation disabled.
  Guess Type is SAD.
  Energy threshold   = 1.00e-06
  Density threshold  = 1.00e-06
  Integral threshold = 0.00e+00

  ==> Primary Basis <==

  Basis Set: AUG-CC-PVDZ
    Blend: AUG-CC-PVDZ
    Number of shells: 181
    Number of basis function: 435
    Number of Cartesian functions: 467
    Spherical Harmonics?: true
    Max angular momentum: 2

  ==> DFT Potential <==

   => Composite Functional: WB97X-D <= 

    wB97X-D Hyb-GGA Exchange-Correlation Functional

    J.-D. Chai and M. Head-Gordon, Phys. Chem. Chem. Phys. 10, 6615 (2008)

    Deriv               =              1
    GGA                 =           TRUE
    Meta                =          FALSE

    Exchange Hybrid     =           TRUE
    MP2 Hybrid          =          FALSE

   => Exchange-Correlation Functionals <=

    1.0000   wB97D range-separated functional

   => Exact (HF) Exchange <=

    0.7780            HF,LR [omega = 0.2000]
    0.2220               HF 

   => Molecular Quadrature <=

    Radial Scheme          =       TREUTLER
    Pruning Scheme         =           FLAT
    Nuclear Scheme         =       TREUTLER

    BS radius alpha        =              1
    Pruning alpha          =              1
    Radial Points          =             75
    Spherical Points       =            302
    Total Points           =         520950
    Total Blocks           =           3870
    Max Points             =            256
    Max Functions          =            395

   => WB97X-D: Empirical Dispersion <=

    Chai and Head-Gordon Dispersion Correction
    Chai, J.-D.; Head-Gordon, M. (2010), J. Chem. Phys., 132: 6615-6620

        s6 =       1.000000

   => Loading Basis Set <=

    Name: (AUG-CC-PVDZ AUX)
    Role: JKFIT
    Keyword: DF_BASIS_SCF
    atoms 1             entry N          line   212 file /fsx/users/francis/anaconda3/envs/poltype-dev/share/psi4/basis/aug-cc-pvdz-jkfit.gbs 
    atoms 2-3, 6-12, 14 entry C          line   154 file /fsx/users/francis/anaconda3/envs/poltype-dev/share/psi4/basis/aug-cc-pvdz-jkfit.gbs 
    atoms 4-5           entry F          line   328 file /fsx/users/francis/anaconda3/envs/poltype-dev/share/psi4/basis/aug-cc-pvdz-jkfit.gbs 
    atoms 13            entry S          line   690 file /fsx/users/francis/anaconda3/envs/poltype-dev/share/psi4/basis/aug-cc-pvdz-jkfit.gbs 
    atoms 15-16         entry O          line   270 file /fsx/users/francis/anaconda3/envs/poltype-dev/share/psi4/basis/aug-cc-pvdz-jkfit.gbs 
    atoms 17-23         entry H          line    70 file /fsx/users/francis/anaconda3/envs/poltype-dev/share/psi4/basis/aug-cc-pvdz-jkfit.gbs 

  ==> Pre-Iterations <==

   -------------------------------------------------------
    Irrep   Nso     Nmo     Nalpha   Nbeta   Ndocc  Nsocc
   -------------------------------------------------------
     A        435     435       0       0       0       0
   -------------------------------------------------------
    Total     435     435      62      62      62       0
   -------------------------------------------------------

  ==> Integral Setup <==

  ==> DiskDFJK: Density-Fitted J/K Matrices <==

    J tasked:                  Yes
    K tasked:                  Yes
    wK tasked:                 Yes
    Omega:               2.000E-01
    OpenMP threads:              8
    Integrals threads:           8
    Memory [MiB]:             6790
    Algorithm:                Core
    Integral Cache:           NONE
    Schwarz Cutoff:          1E-12
    Fitting Condition:       1E-10

   => Auxiliary Basis Set <=

  Basis Set: (AUG-CC-PVDZ AUX)
    Blend: AUG-CC-PVDZ-JKFIT
    Number of shells: 544
    Number of basis function: 1642
    Number of Cartesian functions: 1910
    Spherical Harmonics?: true
    Max angular momentum: 3

  Cached 100.0% of DFT collocation blocks in 4.544 [GiB].

  Minimum eigenvalue in the overlap matrix is 1.5077595196E-06.
  Using Symmetric Orthogonalization.

  SCF Guess: Superposition of Atomic Densities via on-the-fly atomic UHF.

  ==> Iterations <==

                           Total Energy        Delta E     RMS |[F,P]|

   @DF-RKS iter SAD: -1187.39360834192325   -1.18739e+03   0.00000e+00 
   @DF-RKS iter   1: -1187.69039206597017   -2.96784e-01   2.41950e-03 DIIS
   @DF-RKS iter   2: -1187.69825701048967   -7.86494e-03   2.63090e-03 DIIS
   @DF-RKS iter   3: -1188.17407934790072   -4.75822e-01   6.21475e-04 DIIS
   @DF-RKS iter   4: -1188.20248879359269   -2.84094e-02   1.62082e-04 DIIS
   @DF-RKS iter   5: -1188.20468624111732   -2.19745e-03   4.64175e-05 DIIS
   @DF-RKS iter   6: -1188.20490983919012   -2.23598e-04   1.57471e-05 DIIS
   @DF-RKS iter   7: -1188.20493613518215   -2.62960e-05   4.87147e-06 DIIS
   @DF-RKS iter   8: -1188.20494114186022   -5.00668e-06   1.75283e-06 DIIS
   @DF-RKS iter   9: -1188.20494237593175   -1.23407e-06   1.07474e-06 DIIS
   @DF-RKS iter  10: -1188.20494260343139   -2.27500e-07   4.09669e-07 DIIS
  Energy and wave function converged.


  ==> Post-Iterations <==

    Orbital Energies [Eh]
    ---------------------

    Doubly Occupied:                                                      

       1A    -89.069898     2A    -24.879941     3A    -24.867911  
       4A    -19.304441     5A    -19.288065     6A    -14.536577  
       7A    -10.509310     8A    -10.455601     9A    -10.436320  
      10A    -10.407755    11A    -10.379084    12A    -10.356635  
      13A    -10.352321    14A    -10.350088    15A    -10.345604  
      16A    -10.343945    17A     -8.087407    18A     -6.037279  
      19A     -6.033149    20A     -6.026180    21A     -1.385602  
      22A     -1.327155    23A     -1.188944    24A     -1.181007  
      25A     -1.093668    26A     -1.000461    27A     -0.938493  
      28A     -0.904106    29A     -0.888600    30A     -0.866830  
      31A     -0.792599    32A     -0.765757    33A     -0.752355  
      34A     -0.740081    35A     -0.695967    36A     -0.678082  
      37A     -0.668674    38A     -0.643512    39A     -0.628993  
      40A     -0.591294    41A     -0.579831    42A     -0.568693  
      43A     -0.562536    44A     -0.557472    45A     -0.555533  
      46A     -0.548701    47A     -0.539285    48A     -0.533785  
      49A     -0.527432    50A     -0.516742    51A     -0.512125  
      52A     -0.500560    53A     -0.494283    54A     -0.480498  
      55A     -0.474091    56A     -0.440872    57A     -0.420396  
      58A     -0.397773    59A     -0.371913    60A     -0.368314  
      61A     -0.340290    62A     -0.332472  

    Virtual:                                                              

      63A     -0.057401    64A      0.006611    65A      0.024100  
      66A      0.032394    67A      0.036356    68A      0.041000  
      69A      0.049094    70A      0.057033    71A      0.058735  
      72A      0.065059    73A      0.072862    74A      0.077805  
      75A      0.082961    76A      0.090065    77A      0.093800  
      78A      0.101353    79A      0.105777    80A      0.109852  
      81A      0.111677    82A      0.115625    83A      0.119941  
      84A      0.124000    85A      0.129407    86A      0.132799  
      87A      0.136398    88A      0.138630    89A      0.147069  
      90A      0.149763    91A      0.155051    92A      0.158252  
      93A      0.159460    94A      0.165412    95A      0.168089  
      96A      0.172211    97A      0.174313    98A      0.175653  
      99A      0.180838   100A      0.181725   101A      0.188190  
     102A      0.193463   103A      0.198818   104A      0.203372  
     105A      0.209617   106A      0.211767   107A      0.217134  
     108A      0.221283   109A      0.225806   110A      0.230355  
     111A      0.232867   112A      0.235598   113A      0.239316  
     114A      0.247261   115A      0.249313   116A      0.252336  
     117A      0.257550   118A      0.259878   119A      0.263426  
     120A      0.269190   121A      0.272754   122A      0.278260  
     123A      0.280358   124A      0.281985   125A      0.288901  
     126A      0.294491   127A      0.297567   128A      0.301705  
     129A      0.306533   130A      0.308654   131A      0.311678  
     132A      0.322426   133A      0.324828   134A      0.325441  
     135A      0.328357   136A      0.336297   137A      0.338992  
     138A      0.345304   139A      0.348002   140A      0.353391  
     141A      0.361738   142A      0.365720   143A      0.367114  
     144A      0.373147   145A      0.376858   146A      0.378673  
     147A      0.382485   148A      0.385612   149A      0.389399  
     150A      0.394445   151A      0.403570   152A      0.408265  
     153A      0.410408   154A      0.414359   155A      0.416325  
     156A      0.419484   157A      0.432405   158A      0.435685  
     159A      0.440954   160A      0.443692   161A      0.451582  
     162A      0.461614   163A      0.463851   164A      0.472747  
     165A      0.479809   166A      0.483432   167A      0.488000  
     168A      0.490268   169A      0.496663   170A      0.503639  
     171A      0.511432   172A      0.516531   173A      0.521342  
     174A      0.531693   175A      0.534518   176A      0.540106  
     177A      0.542258   178A      0.548431   179A      0.552439  
     180A      0.562092   181A      0.565635   182A      0.576550  
     183A      0.581204   184A      0.589520   185A      0.594477  
     186A      0.599103   187A      0.603206   188A      0.613665  
     189A      0.617882   190A      0.621473   191A      0.626464  
     192A      0.634888   193A      0.638946   194A      0.640995  
     195A      0.643468   196A      0.652060   197A      0.657573  
     198A      0.663322   199A      0.667915   200A      0.670125  
     201A      0.675767   202A      0.680164   203A      0.688769  
     204A      0.693505   205A      0.697187   206A      0.702004  
     207A      0.709192   208A      0.717283   209A      0.727048  
     210A      0.734134   211A      0.741258   212A      0.751114  
     213A      0.754010   214A      0.755563   215A      0.766433  
     216A      0.770212   217A      0.775313   218A      0.778924  
     219A      0.792241   220A      0.796795   221A      0.805499  
     222A      0.806803   223A      0.816851   224A      0.820628  
     225A      0.827213   226A      0.837653   227A      0.841033  
     228A      0.843231   229A      0.847880   230A      0.855232  
     231A      0.862345   232A      0.872968   233A      0.880039  
     234A      0.892283   235A      0.901668   236A      0.910477  
     237A      0.918709   238A      0.933489   239A      0.941236  
     240A      0.945452   241A      0.951601   242A      0.970549  
     243A      0.975702   244A      0.991158   245A      0.999259  
     246A      1.007191   247A      1.015551   248A      1.025008  
     249A      1.034158   250A      1.043385   251A      1.056568  
     252A      1.066924   253A      1.069894   254A      1.080830  
     255A      1.095501   256A      1.100171   257A      1.105928  
     258A      1.115433   259A      1.134157   260A      1.139967  
     261A      1.146147   262A      1.149802   263A      1.167473  
     264A      1.179557   265A      1.191398   266A      1.192711  
     267A      1.213500   268A      1.221149   269A      1.225678  
     270A      1.240635   271A      1.261795   272A      1.274280  
     273A      1.274773   274A      1.286449   275A      1.296067  
     276A      1.299241   277A      1.313641   278A      1.323233  
     279A      1.341396   280A      1.346475   281A      1.356494  
     282A      1.358246   283A      1.364806   284A      1.382568  
     285A      1.391766   286A      1.402606   287A      1.410762  
     288A      1.414212   289A      1.430876   290A      1.445606  
     291A      1.458589   292A      1.468544   293A      1.473946  
     294A      1.485840   295A      1.498662   296A      1.503323  
     297A      1.520102   298A      1.531792   299A      1.541426  
     300A      1.548839   301A      1.552016   302A      1.561148  
     303A      1.565607   304A      1.579678   305A      1.582292  
     306A      1.594923   307A      1.605232   308A      1.607236  
     309A      1.609549   310A      1.621160   311A      1.631045  
     312A      1.637820   313A      1.643747   314A      1.658265  
     315A      1.667506   316A      1.671146   317A      1.680744  
     318A      1.693886   319A      1.697066   320A      1.713797  
     321A      1.730125   322A      1.733540   323A      1.742495  
     324A      1.755919   325A      1.757793   326A      1.764055  
     327A      1.780755   328A      1.790149   329A      1.802972  
     330A      1.818865   331A      1.826274   332A      1.838906  
     333A      1.845464   334A      1.860193   335A      1.870575  
     336A      1.873328   337A      1.881466   338A      1.895509  
     339A      1.905112   340A      1.914117   341A      1.924079  
     342A      1.931053   343A      1.944491   344A      1.954183  
     345A      1.964994   346A      1.971957   347A      1.987985  
     348A      1.992257   349A      2.001705   350A      2.018685  
     351A      2.029588   352A      2.034240   353A      2.054241  
     354A      2.063396   355A      2.073789   356A      2.083622  
     357A      2.090882   358A      2.097562   359A      2.125281  
     360A      2.130734   361A      2.139681   362A      2.165022  
     363A      2.171559   364A      2.174360   365A      2.197492  
     366A      2.200879   367A      2.217925   368A      2.224982  
     369A      2.235393   370A      2.279601   371A      2.285709  
     372A      2.309751   373A      2.316884   374A      2.330961  
     375A      2.336124   376A      2.345720   377A      2.354789  
     378A      2.367191   379A      2.382204   380A      2.405742  
     381A      2.408937   382A      2.442695   383A      2.475803  
     384A      2.490994   385A      2.512329   386A      2.544124  
     387A      2.574932   388A      2.598978   389A      2.614566  
     390A      2.630178   391A      2.661740   392A      2.666174  
     393A      2.681077   394A      2.694126   395A      2.710655  
     396A      2.725417   397A      2.749600   398A      2.776119  
     399A      2.851259   400A      2.938879   401A      2.952883  
     402A      3.008039   403A      3.026174   404A      3.091330  
     405A      3.128324   406A      3.159490   407A      3.357542  
     408A      3.373021   409A      3.381548   410A      3.422215  
     411A      3.463980   412A      3.470893   413A      3.496455  
     414A      3.503219   415A      3.536699   416A      3.555295  
     417A      3.561289   418A      3.597998   419A      3.684093  
     420A      3.711469   421A      3.750954   422A      3.804873  
     423A      3.859776   424A      3.940996   425A      4.447924  
     426A      4.627337   427A      4.660012   428A      4.692567  
     429A      4.720807   430A      4.745540   431A      4.752606  
     432A      4.777475   433A      4.812398   434A      4.855983  
     435A      4.901729  

    Final Occupation by Irrep:
              A 
    DOCC [    62 ]

  @DF-RKS Final Energy: -1188.20494260343139

   => Energetics <=

    Nuclear Repulsion Energy =           1178.8088274926308259
    One-Electron Energy =               -3972.0433736123159179
    Two-Electron Energy =                1694.5812226922002992
    DFT Exchange-Correlation Energy =     -89.5381552499045483
    Empirical Dispersion Energy =          -0.0134639260419725
    VV10 Nonlocal Energy =                  0.0000000000000000
    Total Energy =                      -1188.2049426034313910

Computation Completed


Properties will be evaluated at   0.446132,   0.074662,   0.344217 [a0]

Properties computed using the SCF density matrix

  Nuclear Dipole Moment: [e a0]
     X:    24.3317      Y:    -2.4755      Z:    -3.6439

  Electronic Dipole Moment: [e a0]
     X:   -21.7757      Y:     2.0094      Z:     3.4406

  Dipole Moment: [e a0]
     X:     2.5560      Y:    -0.4661      Z:    -0.2033     Total:     2.6061

  Dipole Moment: [D]
     X:     6.4966      Y:    -1.1847      Z:    -0.5167     Total:     6.6239


*** tstop() called on cpu-spot-dy-c5n2xlarge-1 at Tue Jun 22 14:39:59 2021
Module time:
	user time   =     693.88 seconds =      11.56 minutes
	system time =       7.68 seconds =       0.13 minutes
	total time  =         93 seconds =       1.55 minutes
Total time:
	user time   =    2346.92 seconds =      39.12 minutes
	system time =      23.74 seconds =       0.40 minutes
	total time  =        317 seconds =       5.28 minutes

       N-Body: Complex Energy (fragments = (1,), basis = (1,): -1188.20494260343139)

   ==> N-Body: Now computing 2-body complexes <==


       N-Body: Computing complex (1/1) with fragments (1, 2) in the basis of fragments (1, 2).


*** tstart() called on cpu-spot-dy-c5n2xlarge-1
*** at Tue Jun 22 14:39:59 2021

   => Loading Basis Set <=

    Name: AUG-CC-PVDZ
    Role: ORBITAL
    Keyword: BASIS
    atoms 1             entry N          line   214 file /fsx/users/francis/anaconda3/envs/poltype-dev/share/psi4/basis/aug-cc-pvdz.gbs 
    atoms 2-3, 6-12, 14 entry C          line   178 file /fsx/users/francis/anaconda3/envs/poltype-dev/share/psi4/basis/aug-cc-pvdz.gbs 
    atoms 4-5           entry F          line   286 file /fsx/users/francis/anaconda3/envs/poltype-dev/share/psi4/basis/aug-cc-pvdz.gbs 
    atoms 13            entry S          line   698 file /fsx/users/francis/anaconda3/envs/poltype-dev/share/psi4/basis/aug-cc-pvdz.gbs 
    atoms 15-16, 24     entry O          line   250 file /fsx/users/francis/anaconda3/envs/poltype-dev/share/psi4/basis/aug-cc-pvdz.gbs 
    atoms 17-23, 25-26  entry H          line    36 file /fsx/users/francis/anaconda3/envs/poltype-dev/share/psi4/basis/aug-cc-pvdz.gbs 


         ---------------------------------------------------------
                                   SCF
               by Justin Turney, Rob Parrish, Andy Simmonett
                          and Daniel G. A. Smith
                              RKS Reference
                        8 Threads,  15258 MiB Core
         ---------------------------------------------------------

  ==> Geometry <==

    Molecular point group: c1
    Full point group: C1

    Geometry (in Angstrom), charge = 0, multiplicity = 1:

       Center              X                  Y                   Z               Mass       
    ------------   -----------------  -----------------  -----------------  -----------------
[...]
         H            5.417566795079     0.440997877651     0.488394391928     1.007825032230
         H            4.590909795079    -0.979517122349     1.195577391928     1.007825032230
         H            6.087114795079    -1.200504122349     0.240901391928     1.007825032230
         O           -3.124294404921    -0.526742922349    -2.472694008072    15.994914619570
         H           -3.519558404921    -1.263736922349    -1.999332008072     1.007825032230
         H           -3.822202404921     0.096669077651    -2.679418008072     1.007825032230

  Running in c1 symmetry.

  Rotational constants: A =      0.02552  B =      0.00728  C =      0.00688 [cm^-1]
  Rotational constants: A =    765.06550  B =    218.24166  C =    206.22064 [MHz]
  Nuclear repulsion = 1326.205031731558847

  Charge       = 0
  Multiplicity = 1
  Electrons    = 134
  Nalpha       = 67
  Nbeta        = 67

  ==> Algorithm <==

  SCF Algorithm Type is DF.
  DIIS enabled.
  MOM disabled.
  Fractional occupation disabled.
  Guess Type is SAD.
  Energy threshold   = 1.00e-06
  Density threshold  = 1.00e-06
  Integral threshold = 0.00e+00

  ==> Primary Basis <==

  Basis Set: AUG-CC-PVDZ
    Blend: AUG-CC-PVDZ
    Number of shells: 200
    Number of basis function: 476
    Number of Cartesian functions: 510
    Spherical Harmonics?: true
    Max angular momentum: 2

  ==> DFT Potential <==

   => Composite Functional: WB97X-D <= 

    wB97X-D Hyb-GGA Exchange-Correlation Functional

    J.-D. Chai and M. Head-Gordon, Phys. Chem. Chem. Phys. 10, 6615 (2008)

    Deriv               =              1
    GGA                 =           TRUE
    Meta                =          FALSE

    Exchange Hybrid     =           TRUE
    MP2 Hybrid          =          FALSE

   => Exchange-Correlation Functionals <=

    1.0000   wB97D range-separated functional

   => Exact (HF) Exchange <=

    0.7780            HF,LR [omega = 0.2000]
    0.2220               HF 

   => Molecular Quadrature <=

    Radial Scheme          =       TREUTLER
    Pruning Scheme         =           FLAT
    Nuclear Scheme         =       TREUTLER

    BS radius alpha        =              1
    Pruning alpha          =              1
    Radial Points          =             75
    Spherical Points       =            302
    Total Points           =         588900
    Total Blocks           =           4345
    Max Points             =            256
    Max Functions          =            429

   => WB97X-D: Empirical Dispersion <=

    Chai and Head-Gordon Dispersion Correction
    Chai, J.-D.; Head-Gordon, M. (2010), J. Chem. Phys., 132: 6615-6620

        s6 =       1.000000

   => Loading Basis Set <=

    Name: (AUG-CC-PVDZ AUX)
    Role: JKFIT
    Keyword: DF_BASIS_SCF
    atoms 1             entry N          line   212 file /fsx/users/francis/anaconda3/envs/poltype-dev/share/psi4/basis/aug-cc-pvdz-jkfit.gbs 
    atoms 2-3, 6-12, 14 entry C          line   154 file /fsx/users/francis/anaconda3/envs/poltype-dev/share/psi4/basis/aug-cc-pvdz-jkfit.gbs 
    atoms 4-5           entry F          line   328 file /fsx/users/francis/anaconda3/envs/poltype-dev/share/psi4/basis/aug-cc-pvdz-jkfit.gbs 
    atoms 13            entry S          line   690 file /fsx/users/francis/anaconda3/envs/poltype-dev/share/psi4/basis/aug-cc-pvdz-jkfit.gbs 
    atoms 15-16, 24     entry O          line   270 file /fsx/users/francis/anaconda3/envs/poltype-dev/share/psi4/basis/aug-cc-pvdz-jkfit.gbs 
    atoms 17-23, 25-26  entry H          line    70 file /fsx/users/francis/anaconda3/envs/poltype-dev/share/psi4/basis/aug-cc-pvdz-jkfit.gbs 

  ==> Pre-Iterations <==

   -------------------------------------------------------
    Irrep   Nso     Nmo     Nalpha   Nbeta   Ndocc  Nsocc
   -------------------------------------------------------
     A        476     476       0       0       0       0
   -------------------------------------------------------
    Total     476     476      67      67      67       0
   -------------------------------------------------------

  ==> Integral Setup <==

  ==> DiskDFJK: Density-Fitted J/K Matrices <==

    J tasked:                  Yes
    K tasked:                  Yes
    wK tasked:                 Yes
    Omega:               2.000E-01
    OpenMP threads:              8
    Integrals threads:           8
    Memory [MiB]:             5962
    Algorithm:                Core
    Integral Cache:           NONE
    Schwarz Cutoff:          1E-12
    Fitting Condition:       1E-10

   => Auxiliary Basis Set <=

  Basis Set: (AUG-CC-PVDZ AUX)
    Blend: AUG-CC-PVDZ-JKFIT
    Number of shells: 596
    Number of basis function: 1792
    Number of Cartesian functions: 2081
    Spherical Harmonics?: true
    Max angular momentum: 3

  Cached 100.0% of DFT collocation blocks in 5.353 [GiB].

  Minimum eigenvalue in the overlap matrix is 1.4599793479E-06.
  Using Symmetric Orthogonalization.

  SCF Guess: Superposition of Atomic Densities via on-the-fly atomic UHF.

  ==> Iterations <==

                           Total Energy        Delta E     RMS |[F,P]|

   @DF-RKS iter SAD: -1263.38936680861184   -1.26339e+03   0.00000e+00 
   @DF-RKS iter   1: -1263.98018271235628   -5.90816e-01   2.55065e-03 DIIS
   @DF-RKS iter   2: -1263.96557948333952    1.46032e-02   2.78220e-03 DIIS
   @DF-RKS iter   3: -1264.60479589376723   -6.39216e-01   5.27002e-04 DIIS
   @DF-RKS iter   4: -1264.62819078143048   -2.33949e-02   1.89149e-04 DIIS
   @DF-RKS iter   5: -1264.63141474285680   -3.22396e-03   5.25449e-05 DIIS
   @DF-RKS iter   6: -1264.63170599139789   -2.91249e-04   1.37036e-05 DIIS
   @DF-RKS iter   7: -1264.63173404734357   -2.80559e-05   4.54412e-06 DIIS
   @DF-RKS iter   8: -1264.63173919681321   -5.14947e-06   1.75344e-06 DIIS
   @DF-RKS iter   9: -1264.63174044082507   -1.24401e-06   1.12322e-06 DIIS
   @DF-RKS iter  10: -1264.63174073574942   -2.94924e-07   3.84217e-07 DIIS
  Energy and wave function converged.


  ==> Post-Iterations <==

    Orbital Energies [Eh]
    ---------------------

    Doubly Occupied:                                                      

       1A    -89.066677     2A    -24.878162     3A    -24.866167  
       4A    -19.300620     5A    -19.287500     6A    -19.278508  
       7A    -14.533604     8A    -10.506922     9A    -10.455093  
      10A    -10.432848    11A    -10.403414    12A    -10.374991  
      13A    -10.352402    14A    -10.348097    15A    -10.346123  
      16A    -10.342819    17A    -10.340042    18A     -8.084171  
      19A     -6.034043    20A     -6.029911    21A     -6.022952  
      22A     -1.383828    23A     -1.325431    24A     -1.188447  
      25A     -1.177252    26A     -1.119608    27A     -1.090686  
      28A     -0.996451    29A     -0.934667    30A     -0.900765  
      31A     -0.884754    32A     -0.863641    33A     -0.789347  
      34A     -0.762509    35A     -0.748990    36A     -0.736978  
      37A     -0.692822    38A     -0.675044    39A     -0.666824  
      40A     -0.640463    41A     -0.631864    42A     -0.626007  
      43A     -0.587586    44A     -0.576523    45A     -0.566759  
      46A     -0.561056    47A     -0.554001    48A     -0.552115  
      49A     -0.546619    50A     -0.537006    51A     -0.531030  
      52A     -0.524764    53A     -0.514880    54A     -0.509331  
      55A     -0.497929    56A     -0.491125    57A     -0.480332  
      58A     -0.477432    59A     -0.470630    60A     -0.438216  
      61A     -0.417311    62A     -0.407607    63A     -0.396517  
      64A     -0.369550    65A     -0.364177    66A     -0.336843  
      67A     -0.329177  

    Virtual:                                                              

      68A     -0.052990    69A      0.010033    70A      0.026298  
      71A      0.033791    72A      0.038247    73A      0.042582  
      74A      0.047318    75A      0.050932    76A      0.058859  
      77A      0.062199    78A      0.067894    79A      0.074967  
      80A      0.079457    81A      0.084315    82A      0.088700  
      83A      0.093465    84A      0.102899    85A      0.106041  
      86A      0.109792    87A      0.112368    88A      0.116989  
      89A      0.118359    90A      0.126117    91A      0.128179  
      92A      0.135062    93A      0.137760    94A      0.138732  
      95A      0.142921    96A      0.150149    97A      0.153596  
      98A      0.156582    99A      0.158323   100A      0.163873  
     101A      0.168390   102A      0.171117   103A      0.171562  
     104A      0.176585   105A      0.179204   106A      0.182431  
     107A      0.186399   108A      0.188819   109A      0.194379  
     110A      0.200830   111A      0.202002   112A      0.208407  
     113A      0.212251   114A      0.213536   115A      0.217835  
     116A      0.223504   117A      0.226398   118A      0.231412  
     119A      0.234068   120A      0.237036   121A      0.238334  
     122A      0.240833   123A      0.245384   124A      0.251570  
     125A      0.256050   126A      0.258938   127A      0.265873  
     128A      0.270154   129A      0.274283   130A      0.276225  
     131A      0.276322   132A      0.280879   133A      0.286378  
     134A      0.287464   135A      0.289256   136A      0.292524  
     137A      0.297193   138A      0.305334   139A      0.309161  
     140A      0.312167   141A      0.315482   142A      0.320927  
     143A      0.322983   144A      0.330772   145A      0.333595  
     146A      0.339210   147A      0.345476   148A      0.346953  
     149A      0.350368   150A      0.352517   151A      0.360152  
     152A      0.361116   153A      0.364518   154A      0.368602  
     155A      0.372321   156A      0.375355   157A      0.380843  
     158A      0.383435   159A      0.386377   160A      0.393531  
     161A      0.397377   162A      0.399921   163A      0.405985  
     164A      0.411436   165A      0.417594   166A      0.418858  
     167A      0.419842   168A      0.429424   169A      0.435066  
     170A      0.437400   171A      0.442516   172A      0.451106  
     173A      0.456397   174A      0.456700   175A      0.459420  
     176A      0.469063   177A      0.475906   178A      0.485565  
     179A      0.488263   180A      0.489540   181A      0.496259  
     182A      0.500332   183A      0.505566   184A      0.510648  
     185A      0.515594   186A      0.518430   187A      0.523369  
     188A      0.530569   189A      0.532171   190A      0.537673  
     191A      0.544522   192A      0.547258   193A      0.551542  
     194A      0.555064   195A      0.564823   196A      0.571571  
     197A      0.573355   198A      0.583728   199A      0.587979  
     200A      0.594820   201A      0.601631   202A      0.603232  
     203A      0.608854   204A      0.616408   205A      0.618908  
     206A      0.628337   207A      0.631081   208A      0.633079  
     209A      0.638524   210A      0.643399   211A      0.644646  
     212A      0.647093   213A      0.652200   214A      0.654296  
     215A      0.663761   216A      0.671022   217A      0.678779  
     218A      0.681816   219A      0.684102   220A      0.685756  
     221A      0.700126   222A      0.702701   223A      0.704597  
     224A      0.708433   225A      0.716039   226A      0.723742  
     227A      0.730284   228A      0.738845   229A      0.740197  
     230A      0.745816   231A      0.753171   232A      0.764429  
     233A      0.771668   234A      0.777745   235A      0.783134  
     236A      0.787818   237A      0.789297   238A      0.795535  
     239A      0.807437   240A      0.812869   241A      0.814169  
     242A      0.818883   243A      0.830014   244A      0.833211  
     245A      0.836226   246A      0.847443   247A      0.849314  
     248A      0.856287   249A      0.857967   250A      0.864602  
     251A      0.869917   252A      0.883839   253A      0.892012  
     254A      0.899563   255A      0.910933   256A      0.914212  
     257A      0.921780   258A      0.929790   259A      0.941073  
     260A      0.948401   261A      0.959948   262A      0.964346  
     263A      0.978917   264A      0.987553   265A      0.993671  
     266A      1.000093   267A      1.013108   268A      1.016985  
     269A      1.026107   270A      1.034304   271A      1.052150  
     272A      1.058749   273A      1.061915   274A      1.069296  
     275A      1.075713   276A      1.085509   277A      1.093383  
     278A      1.105149   279A      1.117165   280A      1.124676  
     281A      1.127887   282A      1.144138   283A      1.144664  
     284A      1.149070   285A      1.164759   286A      1.174379  
     287A      1.179868   288A      1.192620   289A      1.199391  
     290A      1.208036   291A      1.220727   292A      1.233260  
     293A      1.238080   294A      1.251010   295A      1.269800  
     296A      1.279546   297A      1.286349   298A      1.290888  
     299A      1.303067   300A      1.310099   301A      1.315192  
     302A      1.329672   303A      1.336046   304A      1.345675  
     305A      1.349155   306A      1.363808   307A      1.364201  
     308A      1.372374   309A      1.390281   310A      1.397814  
     311A      1.403976   312A      1.415952   313A      1.421671  
     314A      1.422405   315A      1.435225   316A      1.449518  
     317A      1.462808   318A      1.474973   319A      1.475994  
     320A      1.484341   321A      1.501286   322A      1.507133  
     323A      1.519805   324A      1.532545   325A      1.544985  
     326A      1.549044   327A      1.549810   328A      1.559234  
     329A      1.565672   330A      1.574503   331A      1.579111  
     332A      1.592076   333A      1.604077   334A      1.609663  
     335A      1.613513   336A      1.616565   337A      1.624253  
     338A      1.634597   339A      1.639246   340A      1.652030  
     341A      1.664287   342A      1.670318   343A      1.678934  
     344A      1.687719   345A      1.700687   346A      1.704877  
     347A      1.711864   348A      1.723611   349A      1.738175  
     350A      1.749037   351A      1.756619   352A      1.765910  
     353A      1.770752   354A      1.774970   355A      1.792749  
     356A      1.800249   357A      1.817814   358A      1.831099  
     359A      1.833477   360A      1.846127   361A      1.853505  
     362A      1.857821   363A      1.872119   364A      1.878420  
     365A      1.882434   366A      1.897024   367A      1.904176  
     368A      1.908884   369A      1.920272   370A      1.923479  
     371A      1.938751   372A      1.953215   373A      1.955982  
     374A      1.966497   375A      1.978726   376A      1.979757  
     377A      1.998139   378A      2.009179   379A      2.010474  
     380A      2.023690   381A      2.032222   382A      2.047508  
     383A      2.066201   384A      2.068105   385A      2.078679  
     386A      2.081261   387A      2.093286   388A      2.102206  
     389A      2.112132   390A      2.130911   391A      2.147880  
     392A      2.157606   393A      2.168555   394A      2.179613  
     395A      2.185114   396A      2.205395   397A      2.206410  
     398A      2.225388   399A      2.238019   400A      2.247930  
     401A      2.270178   402A      2.276095   403A      2.293090  
     404A      2.298312   405A      2.318049   406A      2.332339  
     407A      2.337347   408A      2.351052   409A      2.353763  
     410A      2.364703   411A      2.373015   412A      2.397368  
     413A      2.419745   414A      2.431263   415A      2.439737  
     416A      2.464864   417A      2.489410   418A      2.498663  
     419A      2.528774   420A      2.558844   421A      2.582705  
     422A      2.589129   423A      2.604988   424A      2.627574  
     425A      2.642019   426A      2.670636   427A      2.689032  
     428A      2.695885   429A      2.700879   430A      2.716175  
     431A      2.732302   432A      2.756430   433A      2.802079  
     434A      2.833645   435A      2.861181   436A      2.953603  
     437A      2.982815   438A      3.018586   439A      3.038187  
     440A      3.107451   441A      3.166956   442A      3.175926  
     443A      3.377064   444A      3.390654   445A      3.395376  
     446A      3.423439   447A      3.437241   448A      3.456259  
     449A      3.462942   450A      3.492188   451A      3.498902  
     452A      3.512232   453A      3.537492   454A      3.560499  
     455A      3.578186   456A      3.596290   457A      3.627109  
     458A      3.696093   459A      3.723369   460A      3.762800  
     461A      3.799879   462A      3.820345   463A      3.892911  
     464A      3.996720   465A      4.033295   466A      4.458076  
     467A      4.632928   468A      4.670045   469A      4.703934  
     470A      4.727797   471A      4.749739   472A      4.757885  
     473A      4.785735   474A      4.824656   475A      4.875786  
     476A      4.908126  

    Final Occupation by Irrep:
              A 
    DOCC [    67 ]

  @DF-RKS Final Energy: -1264.63174073574942

   => Energetics <=

    Nuclear Repulsion Energy =           1326.2050317315588472
    One-Electron Energy =               -4371.8175420046800355
    Two-Electron Energy =                1877.0085218821582203
    DFT Exchange-Correlation Energy =     -96.0121822284187232
    Empirical Dispersion Energy =          -0.0155701163677723
    VV10 Nonlocal Energy =                  0.0000000000000000
    Total Energy =                      -1264.6317407357494176

Computation Completed


Properties will be evaluated at   0.000000,  -0.000000,   0.000000 [a0]

Properties computed using the SCF density matrix

  Nuclear Dipole Moment: [e a0]
     X:    18.5456      Y:    -3.3861      Z:    -7.1842

  Electronic Dipole Moment: [e a0]
     X:   -16.7031      Y:     2.8848      Z:     7.0780

  Dipole Moment: [e a0]
     X:     1.8425      Y:    -0.5013      Z:    -0.1062     Total:     1.9124

  Dipole Moment: [D]
     X:     4.6831      Y:    -1.2742      Z:    -0.2700     Total:     4.8609


*** tstop() called on cpu-spot-dy-c5n2xlarge-1 at Tue Jun 22 14:42:02 2021
Module time:
	user time   =     901.79 seconds =      15.03 minutes
	system time =       9.25 seconds =       0.15 minutes
	total time  =        123 seconds =       2.05 minutes
Total time:
	user time   =    3248.76 seconds =      54.15 minutes
	system time =      32.99 seconds =       0.55 minutes
	total time  =        440 seconds =       7.33 minutes

       N-Body: Complex Energy (fragments = (1, 2), basis = (1, 2): -1264.63174073574942)

   ==> N-Body: Counterpoise Corrected (CP) energies <==

   n-Body     Total Energy [Eh]       I.E. [kcal/mol]      Delta [kcal/mol]
        1    -1264.624475415078        0.000000000000        0.000000000000
        2    -1264.631294510260       -4.279046829570       -4.279046829570

   => Loading Basis Set <=

    Name: DEF2-SVP
    Role: ORBITAL
    Keyword: BASIS
    atoms 1             entry N          line   110 file /fsx/users/francis/anaconda3/envs/poltype-dev/share/psi4/basis/def2-svp.gbs 
    atoms 2-3, 6-12, 14 entry C          line    90 file /fsx/users/francis/anaconda3/envs/poltype-dev/share/psi4/basis/def2-svp.gbs 
    atoms 4-5           entry F          line   150 file /fsx/users/francis/anaconda3/envs/poltype-dev/share/psi4/basis/def2-svp.gbs 
    atoms 13            entry S          line   328 file /fsx/users/francis/anaconda3/envs/poltype-dev/share/psi4/basis/def2-svp.gbs 
    atoms 15-16, 24     entry O          line   130 file /fsx/users/francis/anaconda3/envs/poltype-dev/share/psi4/basis/def2-svp.gbs 
    atoms 17-23, 25-26  entry H          line    15 file /fsx/users/francis/anaconda3/envs/poltype-dev/share/psi4/basis/def2-svp.gbs 

CP Energy =  -0.006819
    Psi4 stopped on: Tuesday, 22 June 2021 02:42PM
    Psi4 wall time for execution: 0:07:19.88

*** Psi4 exiting successfully. Buy a developer a beer!
