
    -----------------------------------------------------------------------
          Psi4: An Open-Source Ab Initio Electronic Structure Package
                               Psi4 1.3.2 release

                         Git: Rev {HEAD} ecbda83 


    R. M. Parrish, L. A. Burns, D. G. A. Smith, A. C. Simmonett,
    A. E. DePrince III, E. G. Hohenstein, U. Bozkaya, A. Yu. Sokolov,
    R. Di Remigio, R. M. Richard, J. F. Gonthier, A. M. James,
    H. R. McAlexander, A. Kumar, M. Saitow, X. Wang, B. P. Pritchard,
    P. Verma, H. F. Schaefer III, K. Patkowski, R. A. King, E. F. Valeev,
    F. A. Evangelista, J. M. Turney, T. D. Crawford, and C. D. Sherrill,
    J. Chem. Theory Comput. 13(7) pp 3185--3197 (2017).
    (doi: 10.1021/acs.jctc.7b00174)


                         Additional Contributions by
    P. Kraus, H. Kruse, M. H. Lechner, M. C. Schieber, R. A. Shaw,
    A. Alenaizan, R. Galvelis, Z. L. Glick, S. Lehtola, and J. P. Misiewicz

    -----------------------------------------------------------------------


    Psi4 started on: Tuesday, 22 June 2021 03:04PM

    Process ID: 21082
    Host:       cpu-spot-dy-c5n2xlarge-1
    PSIDATADIR: /fsx/users/francis/anaconda3/envs/poltype-dev/share/psi4
    Memory:     500.0 MiB
    Threads:    1
    
  ==> Input File <==

--------------------------------------------------------------------------
molecule { 
0 1
  N                 -0.8428290    -1.4083820     0.0066210
  C                 -2.1332900    -1.1277960     0.3798720
  C                 -2.4292590     0.3838470     0.6455610
  F                 -3.7509640     0.6635760     0.3443400
  F                 -2.2868720     0.5840850     2.0003210
  C                 -1.4867430     1.4036230    -0.0816350
  C                 -0.1354400     0.9075720    -0.4373280
  C                  0.8340730     1.7890790    -0.9624210
  C                  2.1194540     1.3351410    -1.2846030
  C                  2.4560690    -0.0330230    -1.1146520
  C                  1.4670190    -0.9296050    -0.6545140
  C                  0.1734730    -0.4800210    -0.3372240
  S                  4.0482530    -0.7136320    -1.4755480
  C                  5.0229460    -0.3209240    -0.0008380
  O                 -2.9506990    -2.0270760     0.5335290
  O                 -1.8231240     2.5749750    -0.2454090
  H                  2.8479870     2.0541620    -1.6586360
  H                  0.5613700     2.8361600    -1.0959240
  H                 -0.6743700    -2.3995180    -0.0952840
  H                  1.7145800    -1.9843230    -0.5271240
  H                  5.0905510     0.7655620     0.1114950
  H                  4.5393410    -0.7545560     0.8800610
  H                  6.0261560    -0.7422870    -0.1142930
--
0 1
  O                 -2.7595439    -0.0647770    -2.4865152
  H                 -3.4569309    -0.7240720    -2.5142882
  H                 -3.1118679     0.7437980    -2.8644562
}
memory 16GB
set_num_threads(8)
psi4_io.set_default_path("/scratch/Psi4-ligand")
set maxiter 500
set freeze_core True
set PROPERTIES_ORIGIN ["COM"]
e_dim= energy('wb97x-d/aug-cc-pVDZ',bsse_type='cp')

psi4.print_out('CP Energy = %10.6f' % (e_dim))
clean()
--------------------------------------------------------------------------

  Memory set to  14.901 GiB by Python driver.
  Threads set to 8 by Python driver.


   ===> N-Body Interaction Abacus <===
        BSSE Treatment:                     cp
        Number of 1-body computations:     4
        Number of 2-body computations:     1

   ==> N-Body: Now computing 1-body complexes <==


       N-Body: Computing complex (1/4) with fragments (2,) in the basis of fragments (2,).


*** tstart() called on cpu-spot-dy-c5n2xlarge-1
*** at Tue Jun 22 15:04:41 2021

   => Loading Basis Set <=

    Name: AUG-CC-PVDZ
    Role: ORBITAL
    Keyword: BASIS
    atoms 1   entry O          line   250 file /fsx/users/francis/anaconda3/envs/poltype-dev/share/psi4/basis/aug-cc-pvdz.gbs 
    atoms 2-3 entry H          line    36 file /fsx/users/francis/anaconda3/envs/poltype-dev/share/psi4/basis/aug-cc-pvdz.gbs 


         ---------------------------------------------------------
                                   SCF
               by Justin Turney, Rob Parrish, Andy Simmonett
                          and Daniel G. A. Smith
                              RKS Reference
                        8 Threads,  15258 MiB Core
         ---------------------------------------------------------

  ==> Geometry <==

    Molecular point group: c1
    Full point group: C1

    Geometry (in Angstrom), charge = 0, multiplicity = 1:

       Center              X                  Y                   Z               Mass       
    ------------   -----------------  -----------------  -----------------  -----------------
         O           -2.632072086237    -0.156036209350    -2.134768522562    15.994914619570
         H           -3.329459086237    -0.815331209350    -2.162541522562     1.007825032230
         H           -2.984396086237     0.652538790650    -2.512709522562     1.007825032230

  Running in c1 symmetry.

  Rotational constants: A =     13.27648  B =      0.07833  C =      0.07792 [cm^-1]
  Rotational constants: A = 398018.75401  B =   2348.29004  C =   2335.93669 [MHz]
  Nuclear repulsion =    9.163008763687962

  Charge       = 0
  Multiplicity = 1
  Electrons    = 10
  Nalpha       = 5
  Nbeta        = 5

  ==> Algorithm <==

  SCF Algorithm Type is DF.
  DIIS enabled.
  MOM disabled.
  Fractional occupation disabled.
  Guess Type is SAD.
  Energy threshold   = 1.00e-06
  Density threshold  = 1.00e-06
  Integral threshold = 0.00e+00

  ==> Primary Basis <==

  Basis Set: AUG-CC-PVDZ
    Blend: AUG-CC-PVDZ
    Number of shells: 19
    Number of basis function: 41
    Number of Cartesian functions: 43
    Spherical Harmonics?: true
    Max angular momentum: 2

  ==> DFT Potential <==

   => Composite Functional: WB97X-D <= 

    wB97X-D Hyb-GGA Exchange-Correlation Functional

    J.-D. Chai and M. Head-Gordon, Phys. Chem. Chem. Phys. 10, 6615 (2008)

    Deriv               =              1
    GGA                 =           TRUE
    Meta                =          FALSE

    Exchange Hybrid     =           TRUE
    MP2 Hybrid          =          FALSE

   => Exchange-Correlation Functionals <=

    1.0000   wB97D range-separated functional

   => Exact (HF) Exchange <=

    0.7780            HF,LR [omega = 0.2000]
    0.2220               HF 

   => Molecular Quadrature <=

    Radial Scheme          =       TREUTLER
    Pruning Scheme         =           FLAT
    Nuclear Scheme         =       TREUTLER

    BS radius alpha        =              1
    Pruning alpha          =              1
    Radial Points          =             75
    Spherical Points       =            302
    Total Points           =          67950
    Total Blocks           =            580
    Max Points             =            256
    Max Functions          =             41

   => WB97X-D: Empirical Dispersion <=

    Chai and Head-Gordon Dispersion Correction
    Chai, J.-D.; Head-Gordon, M. (2010), J. Chem. Phys., 132: 6615-6620

        s6 =       1.000000

   => Loading Basis Set <=

    Name: (AUG-CC-PVDZ AUX)
    Role: JKFIT
    Keyword: DF_BASIS_SCF
    atoms 1   entry O          line   270 file /fsx/users/francis/anaconda3/envs/poltype-dev/share/psi4/basis/aug-cc-pvdz-jkfit.gbs 
    atoms 2-3 entry H          line    70 file /fsx/users/francis/anaconda3/envs/poltype-dev/share/psi4/basis/aug-cc-pvdz-jkfit.gbs 

  ==> Pre-Iterations <==

   -------------------------------------------------------
    Irrep   Nso     Nmo     Nalpha   Nbeta   Ndocc  Nsocc
   -------------------------------------------------------
     A         41      41       0       0       0       0
   -------------------------------------------------------
    Total      41      41       5       5       5       0
   -------------------------------------------------------

  ==> Integral Setup <==

  ==> DiskDFJK: Density-Fitted J/K Matrices <==

    J tasked:                  Yes
    K tasked:                  Yes
    wK tasked:                 Yes
    Omega:               2.000E-01
    OpenMP threads:              8
    Integrals threads:           8
    Memory [MiB]:            11363
    Algorithm:                Core
    Integral Cache:           NONE
    Schwarz Cutoff:          1E-12
    Fitting Condition:       1E-10

   => Auxiliary Basis Set <=

  Basis Set: (AUG-CC-PVDZ AUX)
    Blend: AUG-CC-PVDZ-JKFIT
    Number of shells: 52
    Number of basis function: 150
    Number of Cartesian functions: 171
    Spherical Harmonics?: true
    Max angular momentum: 3

  Cached 100.0% of DFT collocation blocks in 0.079 [GiB].

  Minimum eigenvalue in the overlap matrix is 2.8090020964E-03.
  Using Symmetric Orthogonalization.

  SCF Guess: Superposition of Atomic Densities via on-the-fly atomic UHF.

  ==> Iterations <==

                           Total Energy        Delta E     RMS |[F,P]|

   @DF-RKS iter SAD:   -75.95307559601355   -7.59531e+01   0.00000e+00 
   @DF-RKS iter   1:   -76.27484862776134   -3.21773e-01   1.50998e-02 DIIS
   @DF-RKS iter   2:   -76.22792527124277    4.69234e-02   1.78042e-02 DIIS
   @DF-RKS iter   3:   -76.41942301180303   -1.91498e-01   3.63271e-04 DIIS
   @DF-RKS iter   4:   -76.41956765875180   -1.44647e-04   9.80038e-05 DIIS
   @DF-RKS iter   5:   -76.41957549797498   -7.83922e-06   1.86497e-05 DIIS
   @DF-RKS iter   6:   -76.41957582175277   -3.23778e-07   2.00361e-06 DIIS
   @DF-RKS iter   7:   -76.41957583214383   -1.03911e-08   2.52057e-07 DIIS
  Energy and wave function converged.


  ==> Post-Iterations <==

    Orbital Energies [Eh]
    ---------------------

    Doubly Occupied:                                                      

       1A    -19.278555     2A     -1.119692     3A     -0.631060  
       4A     -0.479312     5A     -0.406783  

    Virtual:                                                              

       6A      0.033965     7A      0.060982     8A      0.162037  
       9A      0.190850    10A      0.199596    11A      0.217816  
      12A      0.255143    13A      0.302284    14A      0.362195  
      15A      0.377269    16A      0.407386    17A      0.518567  
      18A      0.579866    19A      0.603729    20A      0.715854  
      21A      0.811061    22A      0.981014    23A      0.992824  
      24A      1.034550    25A      1.171973    26A      1.288553  
      27A      1.314754    28A      1.397525    29A      1.818259  
      30A      1.848759    31A      1.921688    32A      2.227402  
      33A      2.228797    34A      2.375465    35A      2.497027  
      36A      2.714848    37A      3.372931    38A      3.384983  
      39A      3.402304    40A      3.733416    41A      3.969481  

    Final Occupation by Irrep:
              A 
    DOCC [     5 ]

  @DF-RKS Final Energy:   -76.41957583214383

   => Energetics <=

    Nuclear Repulsion Energy =              9.1630087636879622
    One-Electron Energy =                -122.9404303152277294
    Two-Electron Energy =                  43.8302605968728400
    DFT Exchange-Correlation Energy =      -6.4723844640198767
    Empirical Dispersion Energy =          -0.0000304134570429
    VV10 Nonlocal Energy =                  0.0000000000000000
    Total Energy =                        -76.4195758321438348

Computation Completed


Properties will be evaluated at  -5.084896,  -0.279080,  -4.077030 [a0]

Properties computed using the SCF density matrix

  Nuclear Dipole Moment: [e a0]
     X:    -0.8737      Y:     0.1242      Z:    -0.3377

  Electronic Dipole Moment: [e a0]
     X:     0.2031      Y:    -0.0288      Z:     0.0785

  Dipole Moment: [e a0]
     X:    -0.6705      Y:     0.0954      Z:    -0.2592     Total:     0.7252

  Dipole Moment: [D]
     X:    -1.7043      Y:     0.2426      Z:    -0.6588     Total:     1.8432


*** tstop() called on cpu-spot-dy-c5n2xlarge-1 at Tue Jun 22 15:04:42 2021
Module time:
	user time   =       8.28 seconds =       0.14 minutes
	system time =       0.26 seconds =       0.00 minutes
	total time  =          1 seconds =       0.02 minutes
Total time:
	user time   =       8.28 seconds =       0.14 minutes
	system time =       0.26 seconds =       0.00 minutes
	total time  =          1 seconds =       0.02 minutes

       N-Body: Complex Energy (fragments = (2,), basis = (2,):   -76.41957583214383)

       N-Body: Computing complex (2/4) with fragments (2,) in the basis of fragments (1, 2).


*** tstart() called on cpu-spot-dy-c5n2xlarge-1
*** at Tue Jun 22 15:04:42 2021

   => Loading Basis Set <=

    Name: AUG-CC-PVDZ
    Role: ORBITAL
    Keyword: BASIS
    atoms 1             entry N          line   214 file /fsx/users/francis/anaconda3/envs/poltype-dev/share/psi4/basis/aug-cc-pvdz.gbs 
    atoms 2-3, 6-12, 14 entry C          line   178 file /fsx/users/francis/anaconda3/envs/poltype-dev/share/psi4/basis/aug-cc-pvdz.gbs 
    atoms 4-5           entry F          line   286 file /fsx/users/francis/anaconda3/envs/poltype-dev/share/psi4/basis/aug-cc-pvdz.gbs 
    atoms 13            entry S          line   698 file /fsx/users/francis/anaconda3/envs/poltype-dev/share/psi4/basis/aug-cc-pvdz.gbs 
    atoms 15-16, 24     entry O          line   250 file /fsx/users/francis/anaconda3/envs/poltype-dev/share/psi4/basis/aug-cc-pvdz.gbs 
    atoms 17-23, 25-26  entry H          line    36 file /fsx/users/francis/anaconda3/envs/poltype-dev/share/psi4/basis/aug-cc-pvdz.gbs 


         ---------------------------------------------------------
                                   SCF
               by Justin Turney, Rob Parrish, Andy Simmonett
                          and Daniel G. A. Smith
                              RKS Reference
                        8 Threads,  15258 MiB Core
         ---------------------------------------------------------

  ==> Geometry <==

    Molecular point group: c1
    Full point group: C1

    Geometry (in Angstrom), charge = 0, multiplicity = 1:

       Center              X                  Y                   Z               Mass       
    ------------   -----------------  -----------------  -----------------  -----------------
      Gh(N)          -0.715357186237    -1.499641209350     0.358367677438    14.003074004430
      Gh(C)          -2.005818186237    -1.219055209350     0.731618677438    12.000000000000
      Gh(C)          -2.301787186237     0.292587790650     0.997307677438    12.000000000000
      Gh(F)          -3.623492186237     0.572316790650     0.696086677438    18.998403162730
      Gh(F)          -2.159400186237     0.492825790650     2.352067677438    18.998403162730
      Gh(C)          -1.359271186237     1.312363790650     0.270111677438    12.000000000000
      Gh(C)          -0.007968186237     0.816312790650    -0.085581322562    12.000000000000
      Gh(C)           0.961544813763     1.697819790650    -0.610674322562    12.000000000000
      Gh(C)           2.246925813763     1.243881790650    -0.932856322562    12.000000000000
      Gh(C)           2.583540813763    -0.124282209350    -0.762905322562    12.000000000000
      Gh(C)           1.594490813763    -1.020864209350    -0.302767322562    12.000000000000
      Gh(C)           0.300944813763    -0.571280209350     0.014522677438    12.000000000000
      Gh(S)           4.175724813763    -0.804891209350    -1.123801322562    31.972071174400
      Gh(C)           5.150417813763    -0.412183209350     0.350908677438    12.000000000000
      Gh(O)          -2.823227186237    -2.118335209350     0.885275677438    15.994914619570
      Gh(O)          -1.695652186237     2.483715790650     0.106337677438    15.994914619570
      Gh(H)           2.975458813763     1.962902790650    -1.306889322562     1.007825032230
      Gh(H)           0.688841813763     2.744900790650    -0.744177322562     1.007825032230
      Gh(H)          -0.546898186237    -2.490777209350     0.256462677438     1.007825032230
      Gh(H)           1.842051813763    -2.075582209350    -0.175377322562     1.007825032230
      Gh(H)           5.218022813763     0.674302790650     0.463241677438     1.007825032230
      Gh(H)           4.666812813763    -0.845815209350     1.231807677438     1.007825032230
      Gh(H)           6.153627813763    -0.833546209350     0.237453677438     1.007825032230
         O           -2.632072086237    -0.156036209350    -2.134768522562    15.994914619570
         H           -3.329459086237    -0.815331209350    -2.162541522562     1.007825032230
         H           -2.984396086237     0.652538790650    -2.512709522562     1.007825032230

  Running in c1 symmetry.

  Rotational constants: A =      0.02758  B =      0.00750  C =      0.00706 [cm^-1]
  Rotational constants: A =    826.83249  B =    224.78452  C =    211.77873 [MHz]
  Nuclear repulsion =    9.163008763687962

  Charge       = 0
  Multiplicity = 1
  Electrons    = 10
  Nalpha       = 5
  Nbeta        = 5

  ==> Algorithm <==

  SCF Algorithm Type is DF.
  DIIS enabled.
  MOM disabled.
  Fractional occupation disabled.
  Guess Type is SAD.
  Energy threshold   = 1.00e-06
  Density threshold  = 1.00e-06
  Integral threshold = 0.00e+00

  ==> Primary Basis <==

  Basis Set: AUG-CC-PVDZ
    Blend: AUG-CC-PVDZ
    Number of shells: 200
    Number of basis function: 476
    Number of Cartesian functions: 510
    Spherical Harmonics?: true
    Max angular momentum: 2

  ==> DFT Potential <==

   => Composite Functional: WB97X-D <= 

    wB97X-D Hyb-GGA Exchange-Correlation Functional

    J.-D. Chai and M. Head-Gordon, Phys. Chem. Chem. Phys. 10, 6615 (2008)

    Deriv               =              1
    GGA                 =           TRUE
    Meta                =          FALSE

    Exchange Hybrid     =           TRUE
    MP2 Hybrid          =          FALSE

   => Exchange-Correlation Functionals <=

    1.0000   wB97D range-separated functional

   => Exact (HF) Exchange <=

    0.7780            HF,LR [omega = 0.2000]
    0.2220               HF 

   => Molecular Quadrature <=

    Radial Scheme          =       TREUTLER
    Pruning Scheme         =           FLAT
    Nuclear Scheme         =       TREUTLER

    BS radius alpha        =              1
    Pruning alpha          =              1
    Radial Points          =             75
    Spherical Points       =            302
    Total Points           =         588900
    Total Blocks           =           4368
    Max Points             =            256
    Max Functions          =            436

   => WB97X-D: Empirical Dispersion <=

    Chai and Head-Gordon Dispersion Correction
    Chai, J.-D.; Head-Gordon, M. (2010), J. Chem. Phys., 132: 6615-6620

        s6 =       1.000000

   => Loading Basis Set <=

    Name: (AUG-CC-PVDZ AUX)
    Role: JKFIT
    Keyword: DF_BASIS_SCF
    atoms 1             entry N          line   212 file /fsx/users/francis/anaconda3/envs/poltype-dev/share/psi4/basis/aug-cc-pvdz-jkfit.gbs 
    atoms 2-3, 6-12, 14 entry C          line   154 file /fsx/users/francis/anaconda3/envs/poltype-dev/share/psi4/basis/aug-cc-pvdz-jkfit.gbs 
    atoms 4-5           entry F          line   328 file /fsx/users/francis/anaconda3/envs/poltype-dev/share/psi4/basis/aug-cc-pvdz-jkfit.gbs 
    atoms 13            entry S          line   690 file /fsx/users/francis/anaconda3/envs/poltype-dev/share/psi4/basis/aug-cc-pvdz-jkfit.gbs 
    atoms 15-16, 24     entry O          line   270 file /fsx/users/francis/anaconda3/envs/poltype-dev/share/psi4/basis/aug-cc-pvdz-jkfit.gbs 
    atoms 17-23, 25-26  entry H          line    70 file /fsx/users/francis/anaconda3/envs/poltype-dev/share/psi4/basis/aug-cc-pvdz-jkfit.gbs 

  ==> Pre-Iterations <==

   -------------------------------------------------------
    Irrep   Nso     Nmo     Nalpha   Nbeta   Ndocc  Nsocc
   -------------------------------------------------------
     A        476     476       0       0       0       0
   -------------------------------------------------------
    Total     476     476       5       5       5       0
   -------------------------------------------------------

  ==> Integral Setup <==

  ==> DiskDFJK: Density-Fitted J/K Matrices <==

    J tasked:                  Yes
    K tasked:                  Yes
    wK tasked:                 Yes
    Omega:               2.000E-01
    OpenMP threads:              8
    Integrals threads:           8
    Memory [MiB]:             5888
    Algorithm:                Core
    Integral Cache:           NONE
    Schwarz Cutoff:          1E-12
    Fitting Condition:       1E-10

   => Auxiliary Basis Set <=

  Basis Set: (AUG-CC-PVDZ AUX)
    Blend: AUG-CC-PVDZ-JKFIT
    Number of shells: 596
    Number of basis function: 1792
    Number of Cartesian functions: 2081
    Spherical Harmonics?: true
    Max angular momentum: 3

  Cached 100.0% of DFT collocation blocks in 5.425 [GiB].

  Minimum eigenvalue in the overlap matrix is 1.4533736152E-06.
  Using Symmetric Orthogonalization.

  SCF Guess: Superposition of Atomic Densities via on-the-fly atomic UHF.

  ==> Iterations <==

                           Total Energy        Delta E     RMS |[F,P]|

   @DF-RKS iter SAD:   -75.95308316184079   -7.59531e+01   0.00000e+00 
   @DF-RKS iter   1:   -76.27521955036305   -3.22136e-01   1.30343e-03 DIIS
   @DF-RKS iter   2:   -76.22810887952244    4.71107e-02   1.53698e-03 DIIS
   @DF-RKS iter   3:   -76.41980970228570   -1.91701e-01   3.17242e-05 DIIS
   @DF-RKS iter   4:   -76.41996098281601   -1.51281e-04   8.71783e-06 DIIS
   @DF-RKS iter   5:   -76.41996938302296   -8.40021e-06   1.62793e-06 DIIS
   @DF-RKS iter   6:   -76.41996972440475   -3.41382e-07   1.80687e-07 DIIS
  Energy and wave function converged.


  ==> Post-Iterations <==

    Orbital Energies [Eh]
    ---------------------

    Doubly Occupied:                                                      

       1A    -19.278499     2A     -1.119551     3A     -0.630882  
       4A     -0.479142     5A     -0.406577  

    Virtual:                                                              

       6A      0.022310     7A      0.030701     8A      0.038225  
       9A      0.046015    10A      0.051678    11A      0.055097  
      12A      0.060270    13A      0.069618    14A      0.074022  
      15A      0.076908    16A      0.081903    17A      0.088792  
      18A      0.093985    19A      0.098408    20A      0.103254  
      21A      0.109476    22A      0.109956    23A      0.118095  
      24A      0.122005    25A      0.124926    26A      0.134381  
      27A      0.139235    28A      0.141780    29A      0.144862  
      30A      0.148052    31A      0.154761    32A      0.160145  
      33A      0.161337    34A      0.165506    35A      0.170721  
      36A      0.174207    37A      0.178099    38A      0.181003  
      39A      0.183271    40A      0.189736    41A      0.197190  
      42A      0.198157    43A      0.204525    44A      0.209984  
      45A      0.211366    46A      0.214236    47A      0.218919  
      48A      0.225284    49A      0.228215    50A      0.231503  
      51A      0.236138    52A      0.238832    53A      0.240068  
      54A      0.247273    55A      0.250616    56A      0.260647  
      57A      0.264902    58A      0.268426    59A      0.277916  
      60A      0.283427    61A      0.288683    62A      0.291150  
      63A      0.294999    64A      0.297780    65A      0.305121  
      66A      0.309731    67A      0.319569    68A      0.324949  
      69A      0.330395    70A      0.338904    71A      0.340404  
      72A      0.344658    73A      0.352851    74A      0.358061  
      75A      0.360431    76A      0.369158    77A      0.373110  
      78A      0.379231    79A      0.382761    80A      0.386780  
      81A      0.389701    82A      0.393995    83A      0.405015  
      84A      0.408480    85A      0.409984    86A      0.415127  
      87A      0.418501    88A      0.431182    89A      0.435784  
      90A      0.440749    91A      0.443768    92A      0.454458  
      93A      0.458089    94A      0.460777    95A      0.463103  
      96A      0.465916    97A      0.476268    98A      0.480763  
      99A      0.481419   100A      0.487623   101A      0.498431  
     102A      0.500613   103A      0.507209   104A      0.510805  
     105A      0.517508   106A      0.521096   107A      0.525334  
     108A      0.537387   109A      0.540455   110A      0.543351  
     111A      0.547845   112A      0.555207   113A      0.559712  
     114A      0.566109   115A      0.572336   116A      0.576522  
     117A      0.582056   118A      0.586075   119A      0.597580  
     120A      0.601737   121A      0.605406   122A      0.611383  
     123A      0.617926   124A      0.622655   125A      0.630450  
     126A      0.635134   127A      0.640689   128A      0.650985  
     129A      0.654214   130A      0.657289   131A      0.665296  
     132A      0.669085   133A      0.672966   134A      0.680213  
     135A      0.689207   136A      0.692196   137A      0.701767  
     138A      0.705593   139A      0.720426   140A      0.724397  
     141A      0.732802   142A      0.735555   143A      0.745173  
     144A      0.753648   145A      0.754660   146A      0.765318  
     147A      0.769050   148A      0.775467   149A      0.782369  
     150A      0.794775   151A      0.801803   152A      0.806294  
     153A      0.813904   154A      0.815578   155A      0.823255  
     156A      0.830874   157A      0.833749   158A      0.841744  
     159A      0.845558   160A      0.854712   161A      0.857959  
     162A      0.862303   163A      0.864825   164A      0.874148  
     165A      0.879485   166A      0.893498   167A      0.897235  
     168A      0.900021   169A      0.906335   170A      0.913753  
     171A      0.922805   172A      0.929042   173A      0.942401  
     174A      0.952104   175A      0.960008   176A      0.966911  
     177A      0.976411   178A      0.978410   179A      0.986457  
     180A      0.990352   181A      1.000956   182A      1.002442  
     183A      1.008399   184A      1.013559   185A      1.018283  
     186A      1.031041   187A      1.037483   188A      1.052670  
     189A      1.059749   190A      1.062799   191A      1.078197  
     192A      1.081904   193A      1.092368   194A      1.106871  
     195A      1.114681   196A      1.121999   197A      1.125319  
     198A      1.141665   199A      1.153869   200A      1.158508  
     201A      1.164195   202A      1.175827   203A      1.182505  
     204A      1.191663   205A      1.200525   206A      1.212285  
     207A      1.218909   208A      1.227276   209A      1.240734  
     210A      1.247697   211A      1.256507   212A      1.267372  
     213A      1.271160   214A      1.287374   215A      1.311877  
     216A      1.317637   217A      1.324062   218A      1.331309  
     219A      1.340697   220A      1.343822   221A      1.363200  
     222A      1.370291   223A      1.387588   224A      1.396042  
     225A      1.405264   226A      1.416195   227A      1.428157  
     228A      1.441375   229A      1.452434   230A      1.461224  
     231A      1.480216   232A      1.482258   233A      1.492910  
     234A      1.505919   235A      1.510808   236A      1.523911  
     237A      1.546331   238A      1.560185   239A      1.572638  
     240A      1.583084   241A      1.592859   242A      1.611489  
     243A      1.625545   244A      1.635541   245A      1.641507  
     246A      1.657668   247A      1.671975   248A      1.678252  
     249A      1.697804   250A      1.718816   251A      1.732943  
     252A      1.745488   253A      1.767823   254A      1.781522  
     255A      1.799365   256A      1.811323   257A      1.823866  
     258A      1.842119   259A      1.859143   260A      1.879891  
     261A      1.893401   262A      1.903123   263A      1.908848  
     264A      1.931340   265A      1.942208   266A      1.963896  
     267A      1.983615   268A      2.017277   269A      2.037609  
     270A      2.044976   271A      2.065625   272A      2.074000  
     273A      2.086769   274A      2.092477   275A      2.100402  
     276A      2.124417   277A      2.130904   278A      2.157363  
     279A      2.164534   280A      2.178056   281A      2.188497  
     282A      2.200641   283A      2.205650   284A      2.222856  
     285A      2.227727   286A      2.231263   287A      2.259113  
     288A      2.260678   289A      2.268891   290A      2.274423  
     291A      2.275643   292A      2.288229   293A      2.296639  
     294A      2.313626   295A      2.316271   296A      2.329364  
     297A      2.329868   298A      2.341545   299A      2.344329  
     300A      2.355161   301A      2.363888   302A      2.371655  
     303A      2.382140   304A      2.388988   305A      2.393330  
     306A      2.414377   307A      2.420525   308A      2.432645  
     309A      2.449842   310A      2.452396   311A      2.462436  
     312A      2.509788   313A      2.516494   314A      2.524567  
     315A      2.543121   316A      2.568022   317A      2.578144  
     318A      2.595148   319A      2.608530   320A      2.613939  
     321A      2.624204   322A      2.636260   323A      2.640906  
     324A      2.656962   325A      2.667467   326A      2.685378  
     327A      2.700122   328A      2.723098   329A      2.751133  
     330A      2.762464   331A      2.766716   332A      2.806787  
     333A      2.816361   334A      2.827296   335A      2.829979  
     336A      2.850956   337A      2.859817   338A      2.878951  
     339A      2.886070   340A      2.895279   341A      2.908213  
     342A      2.918176   343A      2.951209   344A      2.965439  
     345A      2.991739   346A      3.001003   347A      3.013518  
     348A      3.031039   349A      3.045874   350A      3.064908  
     351A      3.087028   352A      3.099486   353A      3.134761  
     354A      3.148373   355A      3.174410   356A      3.204747  
     357A      3.261552   358A      3.271393   359A      3.278196  
     360A      3.291561   361A      3.294338   362A      3.312899  
     363A      3.335220   364A      3.358796   365A      3.375095  
     366A      3.441357   367A      3.460071   368A      3.466609  
     369A      3.473516   370A      3.495065   371A      3.504243  
     372A      3.524569   373A      3.547572   374A      3.580468  
     375A      3.610051   376A      3.655477   377A      3.667482  
     378A      3.686795   379A      3.718224   380A      3.732653  
     381A      3.784393   382A      3.816427   383A      3.831132  
     384A      3.869024   385A      3.908080   386A      3.929017  
     387A      3.993331   388A      3.995751   389A      4.030271  
     390A      4.069570   391A      4.112642   392A      4.148781  
     393A      4.205259   394A      4.247842   395A      4.330032  
     396A      4.366180   397A      4.385333   398A      4.407169  
     399A      4.482713   400A      4.530783   401A      4.544412  
     402A      4.600273   403A      4.632498   404A      4.697059  
     405A      4.752214   406A      4.795092   407A      4.834246  
     408A      4.906543   409A      4.957231   410A      5.003785  
     411A      5.035317   412A      5.059251   413A      5.066849  
     414A      5.073198   415A      5.076829   416A      5.093425  
     417A      5.103365   418A      5.111233   419A      5.145551  
     420A      5.217436   421A      5.277162   422A      5.288998  
     423A      5.323685   424A      5.377666   425A      5.396322  
     426A      5.454609   427A      5.463521   428A      5.532113  
     429A      5.629571   430A      5.842532   431A      5.986309  
     432A      6.050350   433A      6.059496   434A      6.165762  
     435A      6.171804   436A      6.207288   437A      6.458738  
     438A      6.506809   439A      6.817851   440A      6.844678  
     441A      6.874293   442A      6.884412   443A      6.896481  
     444A      6.924170   445A      6.949845   446A      6.968486  
     447A      6.974312   448A      6.991435   449A      7.046117  
     450A      7.056978   451A      7.132720   452A      7.852301  
     453A      7.940100   454A      7.989498   455A      8.138646  
     456A      8.178197   457A      8.231579   458A     18.011878  
     459A     18.423517   460A     18.568483   461A     18.619040  
     462A     18.794841   463A     18.904744   464A     19.178816  
     465A     19.384259   466A     19.613049   467A     20.614460  
     468A     20.756004   469A     20.893314   470A     21.431041  
     471A     25.495473   472A     33.552872   473A     33.560899  
     474A     43.010839   475A     43.022805   476A    138.005713  

    Final Occupation by Irrep:
              A 
    DOCC [     5 ]

  @DF-RKS Final Energy:   -76.41996972440475

   => Energetics <=

    Nuclear Repulsion Energy =              9.1630087636879622
    One-Electron Energy =                -122.9424936913724764
    Two-Electron Energy =                  43.8321772551624065
    DFT Exchange-Correlation Energy =      -6.4726316384256206
    Empirical Dispersion Energy =          -0.0000304134570429
    VV10 Nonlocal Energy =                  0.0000000000000000
    Total Energy =                        -76.4199697244047655

Computation Completed


Properties will be evaluated at  -0.000000,   0.000000,   0.000000 [a0]

Properties computed using the SCF density matrix

  Nuclear Dipole Moment: [e a0]
     X:   -51.7226      Y:    -2.6666      Z:   -41.1080

  Electronic Dipole Moment: [e a0]
     X:    51.0541      Y:     2.7618      Z:    40.8502

  Dipole Moment: [e a0]
     X:    -0.6686      Y:     0.0952      Z:    -0.2577     Total:     0.7228

  Dipole Moment: [D]
     X:    -1.6993      Y:     0.2421      Z:    -0.6551     Total:     1.8372


*** tstop() called on cpu-spot-dy-c5n2xlarge-1 at Tue Jun 22 15:06:04 2021
Module time:
	user time   =     591.28 seconds =       9.85 minutes
	system time =       6.82 seconds =       0.11 minutes
	total time  =         82 seconds =       1.37 minutes
Total time:
	user time   =     599.63 seconds =       9.99 minutes
	system time =       7.08 seconds =       0.12 minutes
	total time  =         83 seconds =       1.38 minutes

       N-Body: Complex Energy (fragments = (2,), basis = (1, 2):   -76.41996972440475)

       N-Body: Computing complex (3/4) with fragments (1,) in the basis of fragments (1, 2).


*** tstart() called on cpu-spot-dy-c5n2xlarge-1
*** at Tue Jun 22 15:06:04 2021

   => Loading Basis Set <=

    Name: AUG-CC-PVDZ
    Role: ORBITAL
    Keyword: BASIS
    atoms 1             entry N          line   214 file /fsx/users/francis/anaconda3/envs/poltype-dev/share/psi4/basis/aug-cc-pvdz.gbs 
    atoms 2-3, 6-12, 14 entry C          line   178 file /fsx/users/francis/anaconda3/envs/poltype-dev/share/psi4/basis/aug-cc-pvdz.gbs 
    atoms 4-5           entry F          line   286 file /fsx/users/francis/anaconda3/envs/poltype-dev/share/psi4/basis/aug-cc-pvdz.gbs 
    atoms 13            entry S          line   698 file /fsx/users/francis/anaconda3/envs/poltype-dev/share/psi4/basis/aug-cc-pvdz.gbs 
    atoms 15-16, 24     entry O          line   250 file /fsx/users/francis/anaconda3/envs/poltype-dev/share/psi4/basis/aug-cc-pvdz.gbs 
    atoms 17-23, 25-26  entry H          line    36 file /fsx/users/francis/anaconda3/envs/poltype-dev/share/psi4/basis/aug-cc-pvdz.gbs 


         ---------------------------------------------------------
                                   SCF
               by Justin Turney, Rob Parrish, Andy Simmonett
                          and Daniel G. A. Smith
                              RKS Reference
                        8 Threads,  15258 MiB Core
         ---------------------------------------------------------

  ==> Geometry <==

    Molecular point group: c1
    Full point group: C1

    Geometry (in Angstrom), charge = 0, multiplicity = 1:

       Center              X                  Y                   Z               Mass       
    ------------   -----------------  -----------------  -----------------  -----------------
         N           -0.715357186237    -1.499641209350     0.358367677438    14.003074004430
         C           -2.005818186237    -1.219055209350     0.731618677438    12.000000000000
         C           -2.301787186237     0.292587790650     0.997307677438    12.000000000000
         F           -3.623492186237     0.572316790650     0.696086677438    18.998403162730
         F           -2.159400186237     0.492825790650     2.352067677438    18.998403162730
         C           -1.359271186237     1.312363790650     0.270111677438    12.000000000000
         C           -0.007968186237     0.816312790650    -0.085581322562    12.000000000000
         C            0.961544813763     1.697819790650    -0.610674322562    12.000000000000
         C            2.246925813763     1.243881790650    -0.932856322562    12.000000000000
         C            2.583540813763    -0.124282209350    -0.762905322562    12.000000000000
         C            1.594490813763    -1.020864209350    -0.302767322562    12.000000000000
         C            0.300944813763    -0.571280209350     0.014522677438    12.000000000000
         S            4.175724813763    -0.804891209350    -1.123801322562    31.972071174400
         C            5.150417813763    -0.412183209350     0.350908677438    12.000000000000
         O           -2.823227186237    -2.118335209350     0.885275677438    15.994914619570
         O           -1.695652186237     2.483715790650     0.106337677438    15.994914619570
         H            2.975458813763     1.962902790650    -1.306889322562     1.007825032230
         H            0.688841813763     2.744900790650    -0.744177322562     1.007825032230
         H           -0.546898186237    -2.490777209350     0.256462677438     1.007825032230
         H            1.842051813763    -2.075582209350    -0.175377322562     1.007825032230
         H            5.218022813763     0.674302790650     0.463241677438     1.007825032230
         H            4.666812813763    -0.845815209350     1.231807677438     1.007825032230
         H            6.153627813763    -0.833546209350     0.237453677438     1.007825032230
      Gh(O)          -2.632072086237    -0.156036209350    -2.134768522562    15.994914619570
      Gh(H)          -3.329459086237    -0.815331209350    -2.162541522562     1.007825032230
      Gh(H)          -2.984396086237     0.652538790650    -2.512709522562     1.007825032230

  Running in c1 symmetry.

  Rotational constants: A =      0.02758  B =      0.00750  C =      0.00706 [cm^-1]
  Rotational constants: A =    826.83249  B =    224.78452  C =    211.77873 [MHz]
  Nuclear repulsion = 1178.844176092145744

  Charge       = 0
  Multiplicity = 1
  Electrons    = 124
  Nalpha       = 62
  Nbeta        = 62

  ==> Algorithm <==

  SCF Algorithm Type is DF.
  DIIS enabled.
  MOM disabled.
  Fractional occupation disabled.
  Guess Type is SAD.
  Energy threshold   = 1.00e-06
  Density threshold  = 1.00e-06
  Integral threshold = 0.00e+00

  ==> Primary Basis <==

  Basis Set: AUG-CC-PVDZ
    Blend: AUG-CC-PVDZ
    Number of shells: 200
    Number of basis function: 476
    Number of Cartesian functions: 510
    Spherical Harmonics?: true
    Max angular momentum: 2

  ==> DFT Potential <==

   => Composite Functional: WB97X-D <= 

    wB97X-D Hyb-GGA Exchange-Correlation Functional

    J.-D. Chai and M. Head-Gordon, Phys. Chem. Chem. Phys. 10, 6615 (2008)

    Deriv               =              1
    GGA                 =           TRUE
    Meta                =          FALSE

    Exchange Hybrid     =           TRUE
    MP2 Hybrid          =          FALSE

   => Exchange-Correlation Functionals <=

    1.0000   wB97D range-separated functional

   => Exact (HF) Exchange <=

    0.7780            HF,LR [omega = 0.2000]
    0.2220               HF 

   => Molecular Quadrature <=

    Radial Scheme          =       TREUTLER
    Pruning Scheme         =           FLAT
    Nuclear Scheme         =       TREUTLER

    BS radius alpha        =              1
    Pruning alpha          =              1
    Radial Points          =             75
    Spherical Points       =            302
    Total Points           =         588900
    Total Blocks           =           4368
    Max Points             =            256
    Max Functions          =            436

   => WB97X-D: Empirical Dispersion <=

    Chai and Head-Gordon Dispersion Correction
    Chai, J.-D.; Head-Gordon, M. (2010), J. Chem. Phys., 132: 6615-6620

        s6 =       1.000000

   => Loading Basis Set <=

    Name: (AUG-CC-PVDZ AUX)
    Role: JKFIT
    Keyword: DF_BASIS_SCF
    atoms 1             entry N          line   212 file /fsx/users/francis/anaconda3/envs/poltype-dev/share/psi4/basis/aug-cc-pvdz-jkfit.gbs 
    atoms 2-3, 6-12, 14 entry C          line   154 file /fsx/users/francis/anaconda3/envs/poltype-dev/share/psi4/basis/aug-cc-pvdz-jkfit.gbs 
    atoms 4-5           entry F          line   328 file /fsx/users/francis/anaconda3/envs/poltype-dev/share/psi4/basis/aug-cc-pvdz-jkfit.gbs 
    atoms 13            entry S          line   690 file /fsx/users/francis/anaconda3/envs/poltype-dev/share/psi4/basis/aug-cc-pvdz-jkfit.gbs 
    atoms 15-16, 24     entry O          line   270 file /fsx/users/francis/anaconda3/envs/poltype-dev/share/psi4/basis/aug-cc-pvdz-jkfit.gbs 
    atoms 17-23, 25-26  entry H          line    70 file /fsx/users/francis/anaconda3/envs/poltype-dev/share/psi4/basis/aug-cc-pvdz-jkfit.gbs 

  ==> Pre-Iterations <==

   -------------------------------------------------------
    Irrep   Nso     Nmo     Nalpha   Nbeta   Ndocc  Nsocc
   -------------------------------------------------------
     A        476     476       0       0       0       0
   -------------------------------------------------------
    Total     476     476      62      62      62       0
   -------------------------------------------------------

  ==> Integral Setup <==

  ==> DiskDFJK: Density-Fitted J/K Matrices <==

    J tasked:                  Yes
    K tasked:                  Yes
    wK tasked:                 Yes
    Omega:               2.000E-01
    OpenMP threads:              8
    Integrals threads:           8
    Memory [MiB]:             5888
    Algorithm:                Core
    Integral Cache:           NONE
    Schwarz Cutoff:          1E-12
    Fitting Condition:       1E-10

   => Auxiliary Basis Set <=

  Basis Set: (AUG-CC-PVDZ AUX)
    Blend: AUG-CC-PVDZ-JKFIT
    Number of shells: 596
    Number of basis function: 1792
    Number of Cartesian functions: 2081
    Spherical Harmonics?: true
    Max angular momentum: 3

  Cached 100.0% of DFT collocation blocks in 5.425 [GiB].

  Minimum eigenvalue in the overlap matrix is 1.4533736152E-06.
  Using Symmetric Orthogonalization.

  SCF Guess: Superposition of Atomic Densities via on-the-fly atomic UHF.

  ==> Iterations <==

                           Total Energy        Delta E     RMS |[F,P]|

   @DF-RKS iter SAD: -1187.38234929832083   -1.18738e+03   0.00000e+00 
   @DF-RKS iter   1: -1187.69079630924602   -3.08447e-01   2.21201e-03 DIIS
   @DF-RKS iter   2: -1187.69728456287157   -6.48825e-03   2.40831e-03 DIIS
   @DF-RKS iter   3: -1188.17435220473112   -4.77068e-01   5.68781e-04 DIIS
   @DF-RKS iter   4: -1188.20284375355868   -2.84915e-02   1.48605e-04 DIIS
   @DF-RKS iter   5: -1188.20505410386022   -2.21035e-03   4.26192e-05 DIIS
   @DF-RKS iter   6: -1188.20527911990166   -2.25016e-04   1.45520e-05 DIIS
   @DF-RKS iter   7: -1188.20530575347789   -2.66336e-05   4.49486e-06 DIIS
   @DF-RKS iter   8: -1188.20531079516195   -5.04168e-06   1.65961e-06 DIIS
   @DF-RKS iter   9: -1188.20531202389748   -1.22874e-06   1.06439e-06 DIIS
   @DF-RKS iter  10: -1188.20531227350830   -2.49611e-07   3.80032e-07 DIIS
  Energy and wave function converged.


  ==> Post-Iterations <==

    Orbital Energies [Eh]
    ---------------------

    Doubly Occupied:                                                      

       1A    -89.069981     2A    -24.879469     3A    -24.867220  
       4A    -19.304824     5A    -19.288902     6A    -14.536745  
       7A    -10.509174     8A    -10.456147     9A    -10.436855  
      10A    -10.408048    11A    -10.379080    12A    -10.356932  
      13A    -10.352335    14A    -10.350189    15A    -10.345746  
      16A    -10.344009    17A     -8.087455    18A     -6.037330  
      19A     -6.033197    20A     -6.026232    21A     -1.385203  
      22A     -1.325281    23A     -1.189946    24A     -1.180132  
      25A     -1.093629    26A     -1.000464    27A     -0.938504  
      28A     -0.904187    29A     -0.888653    30A     -0.866839  
      31A     -0.792517    32A     -0.765677    33A     -0.752334  
      34A     -0.739972    35A     -0.695866    36A     -0.677341  
      37A     -0.667362    38A     -0.643283    39A     -0.628912  
      40A     -0.591287    41A     -0.580066    42A     -0.569059  
      43A     -0.562644    44A     -0.557600    45A     -0.555312  
      46A     -0.547590    47A     -0.539389    48A     -0.533781  
      49A     -0.527168    50A     -0.514940    51A     -0.512214  
      52A     -0.500582    53A     -0.494496    54A     -0.480794  
      55A     -0.474220    56A     -0.441176    57A     -0.420592  
      58A     -0.398343    59A     -0.372231    60A     -0.368179  
      61A     -0.340507    62A     -0.332357  

    Virtual:                                                              

      63A     -0.057368    64A      0.006623    65A      0.023905  
      66A      0.031981    67A      0.036032    68A      0.039464  
      69A      0.049036    70A      0.050350    71A      0.057951  
      72A      0.060253    73A      0.065918    74A      0.075706  
      75A      0.076357    76A      0.084123    77A      0.085724  
      78A      0.091632    79A      0.100092    80A      0.105930  
      81A      0.107677    82A      0.112172    83A      0.114748  
      84A      0.117541    85A      0.123624    86A      0.125855  
      87A      0.131901    88A      0.134726    89A      0.135640  
      90A      0.140429    91A      0.146985    92A      0.150932  
      93A      0.152650    94A      0.156548    95A      0.164987  
      96A      0.166398    97A      0.168510    98A      0.169031  
      99A      0.175566   100A      0.176884   101A      0.177694  
     102A      0.182674   103A      0.188325   104A      0.193709  
     105A      0.196622   106A      0.199875   107A      0.206091  
     108A      0.207580   109A      0.215477   110A      0.217409  
     111A      0.222425   112A      0.227671   113A      0.229962  
     114A      0.233008   115A      0.235921   116A      0.239197  
     117A      0.242627   118A      0.249165   119A      0.253776  
     120A      0.256156   121A      0.259556   122A      0.263234  
     123A      0.269233   124A      0.273559   125A      0.275740  
     126A      0.277118   127A      0.281256   128A      0.284879  
     129A      0.286982   130A      0.288090   131A      0.295228  
     132A      0.299201   133A      0.305048   134A      0.309707  
     135A      0.310635   136A      0.319549   137A      0.322339  
     138A      0.325110   139A      0.331488   140A      0.336542  
     141A      0.341987   142A      0.344627   143A      0.349326  
     144A      0.353285   145A      0.357501   146A      0.361817  
     147A      0.367062   148A      0.369421   149A      0.370495  
     150A      0.377840   151A      0.380099   152A      0.382820  
     153A      0.385795   154A      0.389725   155A      0.398475  
     156A      0.399563   157A      0.408782   158A      0.411475  
     159A      0.416206   160A      0.418947   161A      0.427381  
     162A      0.430095   163A      0.432950   164A      0.439116  
     165A      0.442531   166A      0.444648   167A      0.456786  
     168A      0.462882   169A      0.472520   170A      0.474676  
     171A      0.477406   172A      0.486971   173A      0.489663  
     174A      0.497361   175A      0.498016   176A      0.501049  
     177A      0.504312   178A      0.512515   179A      0.522943  
     180A      0.523552   181A      0.528348   182A      0.530140  
     183A      0.535919   184A      0.539261   185A      0.540761  
     186A      0.546415   187A      0.551681   188A      0.555942  
     189A      0.565358   190A      0.570477   191A      0.574984  
     192A      0.577997   193A      0.583159   194A      0.588071  
     195A      0.591840   196A      0.603524   197A      0.607360  
     198A      0.610961   199A      0.613734   200A      0.623929  
     201A      0.628890   202A      0.632040   203A      0.632921  
     204A      0.637908   205A      0.642055   206A      0.646680  
     207A      0.650487   208A      0.657453   209A      0.664256  
     210A      0.666799   211A      0.670945   212A      0.675889  
     213A      0.677464   214A      0.684848   215A      0.686441  
     216A      0.696693   217A      0.701454   218A      0.703654  
     219A      0.708263   220A      0.715014   221A      0.724791  
     222A      0.730886   223A      0.737638   224A      0.743329  
     225A      0.755169   226A      0.759626   227A      0.764041  
     228A      0.771891   229A      0.773265   230A      0.784868  
     231A      0.793703   232A      0.795153   233A      0.799028  
     234A      0.810196   235A      0.814609   236A      0.818707  
     237A      0.826125   238A      0.832665   239A      0.838951  
     240A      0.841217   241A      0.851652   242A      0.854030  
     243A      0.857854   244A      0.861003   245A      0.873419  
     246A      0.878334   247A      0.894263   248A      0.896320  
     249A      0.908460   250A      0.919317   251A      0.926764  
     252A      0.931807   253A      0.940247   254A      0.948626  
     255A      0.955166   256A      0.966424   257A      0.980668  
     258A      0.990950   259A      0.996319   260A      1.011282  
     261A      1.013039   262A      1.016534   263A      1.034653  
     264A      1.040393   265A      1.053893   266A      1.060920  
     267A      1.074643   268A      1.077696   269A      1.091386  
     270A      1.098290   271A      1.102942   272A      1.110230  
     273A      1.121105   274A      1.135926   275A      1.136476  
     276A      1.148876   277A      1.152552   278A      1.161494  
     279A      1.177350   280A      1.181601   281A      1.191824  
     282A      1.201550   283A      1.207064   284A      1.215535  
     285A      1.230444   286A      1.239410   287A      1.248779  
     288A      1.270038   289A      1.274354   290A      1.277395  
     291A      1.287846   292A      1.294254   293A      1.308668  
     294A      1.313875   295A      1.316724   296A      1.327327  
     297A      1.338708   298A      1.344595   299A      1.349411  
     300A      1.357616   301A      1.371003   302A      1.374785  
     303A      1.379819   304A      1.390705   305A      1.396041  
     306A      1.406869   307A      1.410949   308A      1.425889  
     309A      1.437177   310A      1.444935   311A      1.456123  
     312A      1.472138   313A      1.475926   314A      1.488722  
     315A      1.498788   316A      1.504913   317A      1.509574  
     318A      1.520558   319A      1.525630   320A      1.550428  
     321A      1.553019   322A      1.557712   323A      1.560823  
     324A      1.562784   325A      1.570653   326A      1.588719  
     327A      1.600566   328A      1.607155   329A      1.611297  
     330A      1.615737   331A      1.616853   332A      1.632839  
     333A      1.636355   334A      1.654050   335A      1.658155  
     336A      1.666006   337A      1.671907   338A      1.688058  
     339A      1.691154   340A      1.706129   341A      1.715355  
     342A      1.720089   343A      1.725797   344A      1.738179  
     345A      1.752647   346A      1.766482   347A      1.768569  
     348A      1.784245   349A      1.790047   350A      1.794948  
     351A      1.797525   352A      1.821245   353A      1.827924  
     354A      1.837074   355A      1.852557   356A      1.867456  
     357A      1.871756   358A      1.876061   359A      1.889544  
     360A      1.896687   361A      1.901548   362A      1.909091  
     363A      1.927773   364A      1.939018   365A      1.950685  
     366A      1.957801   367A      1.965383   368A      1.975200  
     369A      1.986852   370A      1.995081   371A      2.005239  
     372A      2.021670   373A      2.023837   374A      2.040218  
     375A      2.046331   376A      2.057833   377A      2.067037  
     378A      2.075554   379A      2.090299   380A      2.096675  
     381A      2.105664   382A      2.124515   383A      2.132962  
     384A      2.148082   385A      2.167563   386A      2.174947  
     387A      2.185338   388A      2.200632   389A      2.207383  
     390A      2.219480   391A      2.228911   392A      2.231336  
     393A      2.251260   394A      2.289685   395A      2.291517  
     396A      2.319873   397A      2.328421   398A      2.336399  
     399A      2.341924   400A      2.349193   401A      2.356517  
     402A      2.366842   403A      2.374697   404A      2.399947  
     405A      2.421425   406A      2.436047   407A      2.447525  
     408A      2.479119   409A      2.492263   410A      2.519959  
     411A      2.540652   412A      2.579042   413A      2.594395  
     414A      2.597318   415A      2.608267   416A      2.628933  
     417A      2.640517   418A      2.665182   419A      2.667828  
     420A      2.690555   421A      2.693078   422A      2.700853  
     423A      2.712378   424A      2.737782   425A      2.751322  
     426A      2.791712   427A      2.848828   428A      2.866203  
     429A      2.958610   430A      2.972418   431A      3.019365  
     432A      3.035099   433A      3.109353   434A      3.167195  
     435A      3.201386   436A      3.378217   437A      3.393788  
     438A      3.396897   439A      3.448317   440A      3.470479  
     441A      3.492447   442A      3.504532   443A      3.516271  
     444A      3.545992   445A      3.564141   446A      3.569934  
     447A      3.595713   448A      3.629885   449A      3.704918  
     450A      3.727788   451A      3.753039   452A      3.792617  
     453A      3.899171   454A      3.955693   455A      4.087362  
     456A      4.185430   457A      4.475424   458A      4.637622  
     459A      4.668217   460A      4.716746   461A      4.724293  
     462A      4.748394   463A      4.759242   464A      4.787333  
     465A      4.822058   466A      4.881716   467A      4.904769  
     468A      5.033150   469A      5.045076   470A      5.082739  
     471A      5.231066   472A      5.453073   473A      5.810548  
     474A      6.622678   475A      7.082974   476A     33.574215  

    Final Occupation by Irrep:
              A 
    DOCC [    62 ]

  @DF-RKS Final Energy: -1188.20531227350830

   => Energetics <=

    Nuclear Repulsion Energy =           1178.8441760921457444
    One-Electron Energy =               -3972.1224102407832106
    Two-Electron Energy =                1694.6213576986108365
    DFT Exchange-Correlation Energy =     -89.5349544753382816
    Empirical Dispersion Energy =          -0.0134813481435283
    VV10 Nonlocal Energy =                  0.0000000000000000
    Total Energy =                      -1188.2053122735082979

Computation Completed


Properties will be evaluated at  -0.000000,   0.000000,   0.000000 [a0]

Properties computed using the SCF density matrix

  Nuclear Dipole Moment: [e a0]
     X:    71.0217      Y:     0.6836      Z:    33.7782

  Electronic Dipole Moment: [e a0]
     X:   -68.4577      Y:    -1.0733      Z:   -33.9761

  Dipole Moment: [e a0]
     X:     2.5640      Y:    -0.3896      Z:    -0.1978     Total:     2.6009

  Dipole Moment: [D]
     X:     6.5170      Y:    -0.9904      Z:    -0.5029     Total:     6.6109


*** tstop() called on cpu-spot-dy-c5n2xlarge-1 at Tue Jun 22 15:08:10 2021
Module time:
	user time   =     932.42 seconds =      15.54 minutes
	system time =       8.91 seconds =       0.15 minutes
	total time  =        126 seconds =       2.10 minutes
Total time:
	user time   =    1532.08 seconds =      25.53 minutes
	system time =      15.99 seconds =       0.27 minutes
	total time  =        209 seconds =       3.48 minutes

       N-Body: Complex Energy (fragments = (1,), basis = (1, 2): -1188.20531227350830)

       N-Body: Computing complex (4/4) with fragments (1,) in the basis of fragments (1,).


*** tstart() called on cpu-spot-dy-c5n2xlarge-1
*** at Tue Jun 22 15:08:10 2021

   => Loading Basis Set <=

    Name: AUG-CC-PVDZ
    Role: ORBITAL
    Keyword: BASIS
    atoms 1             entry N          line   214 file /fsx/users/francis/anaconda3/envs/poltype-dev/share/psi4/basis/aug-cc-pvdz.gbs 
    atoms 2-3, 6-12, 14 entry C          line   178 file /fsx/users/francis/anaconda3/envs/poltype-dev/share/psi4/basis/aug-cc-pvdz.gbs 
    atoms 4-5           entry F          line   286 file /fsx/users/francis/anaconda3/envs/poltype-dev/share/psi4/basis/aug-cc-pvdz.gbs 
    atoms 13            entry S          line   698 file /fsx/users/francis/anaconda3/envs/poltype-dev/share/psi4/basis/aug-cc-pvdz.gbs 
    atoms 15-16         entry O          line   250 file /fsx/users/francis/anaconda3/envs/poltype-dev/share/psi4/basis/aug-cc-pvdz.gbs 
    atoms 17-23         entry H          line    36 file /fsx/users/francis/anaconda3/envs/poltype-dev/share/psi4/basis/aug-cc-pvdz.gbs 


         ---------------------------------------------------------
                                   SCF
               by Justin Turney, Rob Parrish, Andy Simmonett
                          and Daniel G. A. Smith
                              RKS Reference
                        8 Threads,  15258 MiB Core
         ---------------------------------------------------------

  ==> Geometry <==

    Molecular point group: c1
    Full point group: C1

    Geometry (in Angstrom), charge = 0, multiplicity = 1:

       Center              X                  Y                   Z               Mass       
    ------------   -----------------  -----------------  -----------------  -----------------
         N           -0.715357186237    -1.499641209350     0.358367677438    14.003074004430
         C           -2.005818186237    -1.219055209350     0.731618677438    12.000000000000
         C           -2.301787186237     0.292587790650     0.997307677438    12.000000000000
         F           -3.623492186237     0.572316790650     0.696086677438    18.998403162730
         F           -2.159400186237     0.492825790650     2.352067677438    18.998403162730
         C           -1.359271186237     1.312363790650     0.270111677438    12.000000000000
         C           -0.007968186237     0.816312790650    -0.085581322562    12.000000000000
         C            0.961544813763     1.697819790650    -0.610674322562    12.000000000000
         C            2.246925813763     1.243881790650    -0.932856322562    12.000000000000
         C            2.583540813763    -0.124282209350    -0.762905322562    12.000000000000
         C            1.594490813763    -1.020864209350    -0.302767322562    12.000000000000
         C            0.300944813763    -0.571280209350     0.014522677438    12.000000000000
         S            4.175724813763    -0.804891209350    -1.123801322562    31.972071174400
         C            5.150417813763    -0.412183209350     0.350908677438    12.000000000000
         O           -2.823227186237    -2.118335209350     0.885275677438    15.994914619570
         O           -1.695652186237     2.483715790650     0.106337677438    15.994914619570
         H            2.975458813763     1.962902790650    -1.306889322562     1.007825032230
         H            0.688841813763     2.744900790650    -0.744177322562     1.007825032230
         H           -0.546898186237    -2.490777209350     0.256462677438     1.007825032230
         H            1.842051813763    -2.075582209350    -0.175377322562     1.007825032230
         H            5.218022813763     0.674302790650     0.463241677438     1.007825032230
         H            4.666812813763    -0.845815209350     1.231807677438     1.007825032230
         H            6.153627813763    -0.833546209350     0.237453677438     1.007825032230

  Running in c1 symmetry.

  Rotational constants: A =      0.03521  B =      0.00829  C =      0.00733 [cm^-1]
  Rotational constants: A =   1055.56671  B =    248.55456  C =    219.63630 [MHz]
  Nuclear repulsion = 1178.844176092145744

  Charge       = 0
  Multiplicity = 1
  Electrons    = 124
  Nalpha       = 62
  Nbeta        = 62

  ==> Algorithm <==

  SCF Algorithm Type is DF.
  DIIS enabled.
  MOM disabled.
  Fractional occupation disabled.
  Guess Type is SAD.
  Energy threshold   = 1.00e-06
  Density threshold  = 1.00e-06
  Integral threshold = 0.00e+00

  ==> Primary Basis <==

  Basis Set: AUG-CC-PVDZ
    Blend: AUG-CC-PVDZ
    Number of shells: 181
    Number of basis function: 435
    Number of Cartesian functions: 467
    Spherical Harmonics?: true
    Max angular momentum: 2

  ==> DFT Potential <==

   => Composite Functional: WB97X-D <= 

    wB97X-D Hyb-GGA Exchange-Correlation Functional

    J.-D. Chai and M. Head-Gordon, Phys. Chem. Chem. Phys. 10, 6615 (2008)

    Deriv               =              1
    GGA                 =           TRUE
    Meta                =          FALSE

    Exchange Hybrid     =           TRUE
    MP2 Hybrid          =          FALSE

   => Exchange-Correlation Functionals <=

    1.0000   wB97D range-separated functional

   => Exact (HF) Exchange <=

    0.7780            HF,LR [omega = 0.2000]
    0.2220               HF 

   => Molecular Quadrature <=

    Radial Scheme          =       TREUTLER
    Pruning Scheme         =           FLAT
    Nuclear Scheme         =       TREUTLER

    BS radius alpha        =              1
    Pruning alpha          =              1
    Radial Points          =             75
    Spherical Points       =            302
    Total Points           =         520950
    Total Blocks           =           3853
    Max Points             =            256
    Max Functions          =            395

   => WB97X-D: Empirical Dispersion <=

    Chai and Head-Gordon Dispersion Correction
    Chai, J.-D.; Head-Gordon, M. (2010), J. Chem. Phys., 132: 6615-6620

        s6 =       1.000000

   => Loading Basis Set <=

    Name: (AUG-CC-PVDZ AUX)
    Role: JKFIT
    Keyword: DF_BASIS_SCF
    atoms 1             entry N          line   212 file /fsx/users/francis/anaconda3/envs/poltype-dev/share/psi4/basis/aug-cc-pvdz-jkfit.gbs 
    atoms 2-3, 6-12, 14 entry C          line   154 file /fsx/users/francis/anaconda3/envs/poltype-dev/share/psi4/basis/aug-cc-pvdz-jkfit.gbs 
    atoms 4-5           entry F          line   328 file /fsx/users/francis/anaconda3/envs/poltype-dev/share/psi4/basis/aug-cc-pvdz-jkfit.gbs 
    atoms 13            entry S          line   690 file /fsx/users/francis/anaconda3/envs/poltype-dev/share/psi4/basis/aug-cc-pvdz-jkfit.gbs 
    atoms 15-16         entry O          line   270 file /fsx/users/francis/anaconda3/envs/poltype-dev/share/psi4/basis/aug-cc-pvdz-jkfit.gbs 
    atoms 17-23         entry H          line    70 file /fsx/users/francis/anaconda3/envs/poltype-dev/share/psi4/basis/aug-cc-pvdz-jkfit.gbs 

  ==> Pre-Iterations <==

   -------------------------------------------------------
    Irrep   Nso     Nmo     Nalpha   Nbeta   Ndocc  Nsocc
   -------------------------------------------------------
     A        435     435       0       0       0       0
   -------------------------------------------------------
    Total     435     435      62      62      62       0
   -------------------------------------------------------

  ==> Integral Setup <==

  ==> DiskDFJK: Density-Fitted J/K Matrices <==

    J tasked:                  Yes
    K tasked:                  Yes
    wK tasked:                 Yes
    Omega:               2.000E-01
    OpenMP threads:              8
    Integrals threads:           8
    Memory [MiB]:             6788
    Algorithm:                Core
    Integral Cache:           NONE
    Schwarz Cutoff:          1E-12
    Fitting Condition:       1E-10

   => Auxiliary Basis Set <=

  Basis Set: (AUG-CC-PVDZ AUX)
    Blend: AUG-CC-PVDZ-JKFIT
    Number of shells: 544
    Number of basis function: 1642
    Number of Cartesian functions: 1910
    Spherical Harmonics?: true
    Max angular momentum: 3

  Cached 100.0% of DFT collocation blocks in 4.546 [GiB].

  Minimum eigenvalue in the overlap matrix is 1.5364293132E-06.
  Using Symmetric Orthogonalization.

  SCF Guess: Superposition of Atomic Densities via on-the-fly atomic UHF.

  ==> Iterations <==

                           Total Energy        Delta E     RMS |[F,P]|

   @DF-RKS iter SAD: -1187.38244089000432   -1.18738e+03   0.00000e+00 
   @DF-RKS iter   1: -1187.69034985808321   -3.07909e-01   2.41963e-03 DIIS
   @DF-RKS iter   2: -1187.69682304240609   -6.47318e-03   2.63481e-03 DIIS
   @DF-RKS iter   3: -1188.17395502096292   -4.77132e-01   6.22061e-04 DIIS
   @DF-RKS iter   4: -1188.20242729050028   -2.84723e-02   1.62432e-04 DIIS
   @DF-RKS iter   5: -1188.20463375153963   -2.20646e-03   4.66235e-05 DIIS
   @DF-RKS iter   6: -1188.20485870599668   -2.24954e-04   1.59151e-05 DIIS
   @DF-RKS iter   7: -1188.20488532285981   -2.66169e-05   4.91565e-06 DIIS
   @DF-RKS iter   8: -1188.20489036427762   -5.04142e-06   1.81599e-06 DIIS
   @DF-RKS iter   9: -1188.20489159377689   -1.22950e-06   1.16492e-06 DIIS
   @DF-RKS iter  10: -1188.20489184350185   -2.49725e-07   4.15726e-07 DIIS
  Energy and wave function converged.


  ==> Post-Iterations <==

    Orbital Energies [Eh]
    ---------------------

    Doubly Occupied:                                                      

       1A    -89.069987     2A    -24.879431     3A    -24.867206  
       4A    -19.304796     5A    -19.288848     6A    -14.536799  
       7A    -10.509297     8A    -10.456220     9A    -10.436881  
      10A    -10.408093    11A    -10.379132    12A    -10.356969  
      13A    -10.352381    14A    -10.350244    15A    -10.345766  
      16A    -10.344054    17A     -8.087472    18A     -6.037344  
      19A     -6.033216    20A     -6.026246    21A     -1.385283  
      22A     -1.325362    23A     -1.189999    24A     -1.180210  
      25A     -1.093689    26A     -1.000521    27A     -0.938556  
      28A     -0.904246    29A     -0.888707    30A     -0.866888  
      31A     -0.792565    32A     -0.765734    33A     -0.752395  
      34A     -0.740020    35A     -0.695934    36A     -0.677406  
      37A     -0.667419    38A     -0.643342    39A     -0.628975  
      40A     -0.591347    41A     -0.580119    42A     -0.569110  
      43A     -0.562689    44A     -0.557644    45A     -0.555364  
      46A     -0.547649    47A     -0.539436    48A     -0.533801  
      49A     -0.527206    50A     -0.515000    51A     -0.512260  
      52A     -0.500630    53A     -0.494550    54A     -0.480838  
      55A     -0.474277    56A     -0.441212    57A     -0.420630  
      58A     -0.398398    59A     -0.372289    60A     -0.368219  
      61A     -0.340542    62A     -0.332381  

    Virtual:                                                              

      63A     -0.057416    64A      0.006608    65A      0.024092  
      66A      0.032258    67A      0.036291    68A      0.040621  
      69A      0.049249    70A      0.057667    71A      0.058900  
      72A      0.064143    73A      0.073335    74A      0.076467  
      75A      0.083129    76A      0.090158    77A      0.092935  
      78A      0.101110    79A      0.106960    80A      0.110052  
      81A      0.111513    82A      0.115722    83A      0.119665  
      84A      0.124212    85A      0.129458    86A      0.133413  
      87A      0.135987    88A      0.138040    89A      0.146458  
      90A      0.149372    91A      0.155359    92A      0.157732  
      93A      0.159749    94A      0.165487    95A      0.168568  
      96A      0.171990    97A      0.173785    98A      0.175391  
      99A      0.180886   100A      0.182348   101A      0.188151  
     102A      0.192541   103A      0.198328   104A      0.203827  
     105A      0.209983   106A      0.212413   107A      0.216558  
     108A      0.221349   109A      0.226339   110A      0.230374  
     111A      0.232705   112A      0.235281   113A      0.239250  
     114A      0.246422   115A      0.249053   116A      0.252198  
     117A      0.256315   118A      0.258472   119A      0.263062  
     120A      0.269141   121A      0.271195   122A      0.278366  
     123A      0.280323   124A      0.281523   125A      0.287984  
     126A      0.294476   127A      0.297367   128A      0.301209  
     129A      0.304825   130A      0.308056   131A      0.311199  
     132A      0.322457   133A      0.324857   134A      0.325325  
     135A      0.328703   136A      0.336238   137A      0.339451  
     138A      0.344615   139A      0.348691   140A      0.354433  
     141A      0.359763   142A      0.366113   143A      0.367818  
     144A      0.372193   145A      0.375615   146A      0.379470  
     147A      0.383808   148A      0.385647   149A      0.391199  
     150A      0.395184   151A      0.402165   152A      0.406463  
     153A      0.411170   154A      0.413697   155A      0.416199  
     156A      0.421288   157A      0.432551   158A      0.435470  
     159A      0.440266   160A      0.446574   161A      0.452881  
     162A      0.460985   163A      0.463467   164A      0.471941  
     165A      0.480986   166A      0.483336   167A      0.488490  
     168A      0.490601   169A      0.499512   170A      0.503650  
     171A      0.512157   172A      0.516734   173A      0.522373  
     174A      0.529558   175A      0.535099   176A      0.539119  
     177A      0.539837   178A      0.544587   179A      0.552229  
     180A      0.562533   181A      0.567627   182A      0.574499  
     183A      0.579896   184A      0.589615   185A      0.596279  
     186A      0.599051   187A      0.602784   188A      0.614049  
     189A      0.615789   190A      0.619739   191A      0.624857  
     192A      0.635295   193A      0.637323   194A      0.638609  
     195A      0.645667   196A      0.651315   197A      0.658770  
     198A      0.663630   199A      0.666485   200A      0.671128  
     201A      0.672931   202A      0.679675   203A      0.690274  
     204A      0.693116   205A      0.698241   206A      0.701694  
     207A      0.708309   208A      0.718724   209A      0.728110  
     210A      0.734505   211A      0.741908   212A      0.749536  
     213A      0.751654   214A      0.759516   215A      0.763837  
     216A      0.770191   217A      0.775099   218A      0.778224  
     219A      0.791215   220A      0.799453   221A      0.806910  
     222A      0.808715   223A      0.814826   224A      0.818894  
     225A      0.824633   226A      0.837063   227A      0.841896  
     228A      0.844860   229A      0.849523   230A      0.854783  
     231A      0.857828   232A      0.872988   233A      0.883420  
     234A      0.893000   235A      0.905871   236A      0.909759  
     237A      0.919925   238A      0.933920   239A      0.940692  
     240A      0.942488   241A      0.952374   242A      0.970865  
     243A      0.975675   244A      0.990329   245A      0.997223  
     246A      1.007085   247A      1.012681   248A      1.023662  
     249A      1.034479   250A      1.042767   251A      1.056907  
     252A      1.068563   253A      1.073205   254A      1.079518  
     255A      1.095864   256A      1.098867   257A      1.102327  
     258A      1.111403   259A      1.131331   260A      1.136588  
     261A      1.146524   262A      1.148728   263A      1.165509  
     264A      1.177554   265A      1.186434   266A      1.191586  
     267A      1.214077   268A      1.220780   269A      1.226618  
     270A      1.241641   271A      1.264974   272A      1.273045  
     273A      1.275906   274A      1.284973   275A      1.297581  
     276A      1.298124   277A      1.314322   278A      1.325542  
     279A      1.344218   280A      1.351798   281A      1.353059  
     282A      1.358349   283A      1.366515   284A      1.383534  
     285A      1.390651   286A      1.399791   287A      1.410003  
     288A      1.415192   289A      1.430459   290A      1.446921  
     291A      1.458668   292A      1.470944   293A      1.475692  
     294A      1.486159   295A      1.499902   296A      1.504448  
     297A      1.521279   298A      1.531400   299A      1.538450  
     300A      1.548274   301A      1.553938   302A      1.558070  
     303A      1.565260   304A      1.577420   305A      1.580164  
     306A      1.597339   307A      1.601679   308A      1.609017  
     309A      1.610726   310A      1.622498   311A      1.628703  
     312A      1.636001   313A      1.640347   314A      1.658192  
     315A      1.660460   316A      1.673001   317A      1.683183  
     318A      1.697216   319A      1.700360   320A      1.715976  
     321A      1.726526   322A      1.733373   323A      1.751465  
     324A      1.755364   325A      1.762682   326A      1.763956  
     327A      1.781204   328A      1.788123   329A      1.802996  
     330A      1.820075   331A      1.822688   332A      1.839505  
     333A      1.846141   334A      1.856889   335A      1.870351  
     336A      1.870897   337A      1.881559   338A      1.897880  
     339A      1.901531   340A      1.910179   341A      1.918329  
     342A      1.934228   343A      1.946451   344A      1.952994  
     345A      1.966131   346A      1.972793   347A      1.986326  
     348A      1.990041   349A      2.003317   350A      2.017730  
     351A      2.032945   352A      2.036140   353A      2.052813  
     354A      2.059414   355A      2.075289   356A      2.077577  
     357A      2.087066   358A      2.101344   359A      2.123821  
     360A      2.129094   361A      2.143158   362A      2.170014  
     363A      2.174310   364A      2.176872   365A      2.194578  
     366A      2.204784   367A      2.217423   368A      2.221874  
     369A      2.230486   370A      2.282959   371A      2.285671  
     372A      2.312449   373A      2.320853   374A      2.333920  
     375A      2.337247   376A      2.347674   377A      2.352516  
     378A      2.364498   379A      2.385492   380A      2.403261  
     381A      2.409615   382A      2.442290   383A      2.474123  
     384A      2.484083   385A      2.513112   386A      2.540607  
     387A      2.576596   388A      2.597487   389A      2.612306  
     390A      2.629202   391A      2.657736   392A      2.664837  
     393A      2.681343   394A      2.693841   395A      2.709354  
     396A      2.732874   397A      2.746344   398A      2.776022  
     399A      2.848435   400A      2.938648   401A      2.953689  
     402A      3.005268   403A      3.022428   404A      3.088909  
     405A      3.130916   406A      3.160555   407A      3.357718  
     408A      3.367987   409A      3.376383   410A      3.421658  
     411A      3.461504   412A      3.474121   413A      3.497302  
     414A      3.502960   415A      3.539221   416A      3.552655  
     417A      3.563083   418A      3.597861   419A      3.685353  
     420A      3.711853   421A      3.742887   422A      3.781145  
     423A      3.861687   424A      3.927721   425A      4.444688  
     426A      4.631228   427A      4.656604   428A      4.691531  
     429A      4.720289   430A      4.745179   431A      4.753881  
     432A      4.779731   433A      4.813473   434A      4.862799  
     435A      4.902044  

    Final Occupation by Irrep:
              A 
    DOCC [    62 ]

  @DF-RKS Final Energy: -1188.20489184350185

   => Energetics <=

    Nuclear Repulsion Energy =           1178.8441760921457444
    One-Electron Energy =               -3972.1163810143443698
    Two-Electron Energy =                1694.6154185744596816
    DFT Exchange-Correlation Energy =     -89.5346241476198230
    Empirical Dispersion Energy =          -0.0134813481435283
    VV10 Nonlocal Energy =                  0.0000000000000000
    Total Energy =                      -1188.2048918435020823

Computation Completed


Properties will be evaluated at   0.376854,   0.020683,   0.302159 [a0]

Properties computed using the SCF density matrix

  Nuclear Dipole Moment: [e a0]
     X:    24.2918      Y:    -1.8811      Z:    -3.6895

  Electronic Dipole Moment: [e a0]
     X:   -21.7267      Y:     1.4915      Z:     3.4912

  Dipole Moment: [e a0]
     X:     2.5651      Y:    -0.3896      Z:    -0.1983     Total:     2.6020

  Dipole Moment: [D]
     X:     6.5197      Y:    -0.9903      Z:    -0.5039     Total:     6.6137


*** tstop() called on cpu-spot-dy-c5n2xlarge-1 at Tue Jun 22 15:09:45 2021
Module time:
	user time   =     703.19 seconds =      11.72 minutes
	system time =       7.57 seconds =       0.13 minutes
	total time  =         95 seconds =       1.58 minutes
Total time:
	user time   =    2235.32 seconds =      37.26 minutes
	system time =      23.56 seconds =       0.39 minutes
	total time  =        304 seconds =       5.07 minutes

       N-Body: Complex Energy (fragments = (1,), basis = (1,): -1188.20489184350185)

   ==> N-Body: Now computing 2-body complexes <==


       N-Body: Computing complex (1/1) with fragments (1, 2) in the basis of fragments (1, 2).


*** tstart() called on cpu-spot-dy-c5n2xlarge-1
*** at Tue Jun 22 15:09:45 2021

   => Loading Basis Set <=

    Name: AUG-CC-PVDZ
    Role: ORBITAL
    Keyword: BASIS
    atoms 1             entry N          line   214 file /fsx/users/francis/anaconda3/envs/poltype-dev/share/psi4/basis/aug-cc-pvdz.gbs 
    atoms 2-3, 6-12, 14 entry C          line   178 file /fsx/users/francis/anaconda3/envs/poltype-dev/share/psi4/basis/aug-cc-pvdz.gbs 
    atoms 4-5           entry F          line   286 file /fsx/users/francis/anaconda3/envs/poltype-dev/share/psi4/basis/aug-cc-pvdz.gbs 
    atoms 13            entry S          line   698 file /fsx/users/francis/anaconda3/envs/poltype-dev/share/psi4/basis/aug-cc-pvdz.gbs 
    atoms 15-16, 24     entry O          line   250 file /fsx/users/francis/anaconda3/envs/poltype-dev/share/psi4/basis/aug-cc-pvdz.gbs 
    atoms 17-23, 25-26  entry H          line    36 file /fsx/users/francis/anaconda3/envs/poltype-dev/share/psi4/basis/aug-cc-pvdz.gbs 


         ---------------------------------------------------------
                                   SCF
               by Justin Turney, Rob Parrish, Andy Simmonett
                          and Daniel G. A. Smith
                              RKS Reference
                        8 Threads,  15258 MiB Core
         ---------------------------------------------------------

  ==> Geometry <==

    Molecular point group: c1
    Full point group: C1

    Geometry (in Angstrom), charge = 0, multiplicity = 1:

       Center              X                  Y                   Z               Mass       
    ------------   -----------------  -----------------  -----------------  -----------------
         N           -0.715357186237    -1.499641209350     0.358367677438    14.003074004430
         C           -2.005818186237    -1.219055209350     0.731618677438    12.000000000000
         C           -2.301787186237     0.292587790650     0.997307677438    12.000000000000
[...]
         H            5.218022813763     0.674302790650     0.463241677438     1.007825032230
         H            4.666812813763    -0.845815209350     1.231807677438     1.007825032230
         H            6.153627813763    -0.833546209350     0.237453677438     1.007825032230
         O           -2.632072086237    -0.156036209350    -2.134768522562    15.994914619570
         H           -3.329459086237    -0.815331209350    -2.162541522562     1.007825032230
         H           -2.984396086237     0.652538790650    -2.512709522562     1.007825032230

  Running in c1 symmetry.

  Rotational constants: A =      0.02758  B =      0.00750  C =      0.00706 [cm^-1]
  Rotational constants: A =    826.83249  B =    224.78452  C =    211.77873 [MHz]
  Nuclear repulsion = 1342.046263125580936

  Charge       = 0
  Multiplicity = 1
  Electrons    = 134
  Nalpha       = 67
  Nbeta        = 67

  ==> Algorithm <==

  SCF Algorithm Type is DF.
  DIIS enabled.
  MOM disabled.
  Fractional occupation disabled.
  Guess Type is SAD.
  Energy threshold   = 1.00e-06
  Density threshold  = 1.00e-06
  Integral threshold = 0.00e+00

  ==> Primary Basis <==

  Basis Set: AUG-CC-PVDZ
    Blend: AUG-CC-PVDZ
    Number of shells: 200
    Number of basis function: 476
    Number of Cartesian functions: 510
    Spherical Harmonics?: true
    Max angular momentum: 2

  ==> DFT Potential <==

   => Composite Functional: WB97X-D <= 

    wB97X-D Hyb-GGA Exchange-Correlation Functional

    J.-D. Chai and M. Head-Gordon, Phys. Chem. Chem. Phys. 10, 6615 (2008)

    Deriv               =              1
    GGA                 =           TRUE
    Meta                =          FALSE

    Exchange Hybrid     =           TRUE
    MP2 Hybrid          =          FALSE

   => Exchange-Correlation Functionals <=

    1.0000   wB97D range-separated functional

   => Exact (HF) Exchange <=

    0.7780            HF,LR [omega = 0.2000]
    0.2220               HF 

   => Molecular Quadrature <=

    Radial Scheme          =       TREUTLER
    Pruning Scheme         =           FLAT
    Nuclear Scheme         =       TREUTLER

    BS radius alpha        =              1
    Pruning alpha          =              1
    Radial Points          =             75
    Spherical Points       =            302
    Total Points           =         588900
    Total Blocks           =           4368
    Max Points             =            256
    Max Functions          =            436

   => WB97X-D: Empirical Dispersion <=

    Chai and Head-Gordon Dispersion Correction
    Chai, J.-D.; Head-Gordon, M. (2010), J. Chem. Phys., 132: 6615-6620

        s6 =       1.000000

   => Loading Basis Set <=

    Name: (AUG-CC-PVDZ AUX)
    Role: JKFIT
    Keyword: DF_BASIS_SCF
    atoms 1             entry N          line   212 file /fsx/users/francis/anaconda3/envs/poltype-dev/share/psi4/basis/aug-cc-pvdz-jkfit.gbs 
    atoms 2-3, 6-12, 14 entry C          line   154 file /fsx/users/francis/anaconda3/envs/poltype-dev/share/psi4/basis/aug-cc-pvdz-jkfit.gbs 
    atoms 4-5           entry F          line   328 file /fsx/users/francis/anaconda3/envs/poltype-dev/share/psi4/basis/aug-cc-pvdz-jkfit.gbs 
    atoms 13            entry S          line   690 file /fsx/users/francis/anaconda3/envs/poltype-dev/share/psi4/basis/aug-cc-pvdz-jkfit.gbs 
    atoms 15-16, 24     entry O          line   270 file /fsx/users/francis/anaconda3/envs/poltype-dev/share/psi4/basis/aug-cc-pvdz-jkfit.gbs 
    atoms 17-23, 25-26  entry H          line    70 file /fsx/users/francis/anaconda3/envs/poltype-dev/share/psi4/basis/aug-cc-pvdz-jkfit.gbs 

  ==> Pre-Iterations <==

   -------------------------------------------------------
    Irrep   Nso     Nmo     Nalpha   Nbeta   Ndocc  Nsocc
   -------------------------------------------------------
     A        476     476       0       0       0       0
   -------------------------------------------------------
    Total     476     476      67      67      67       0
   -------------------------------------------------------

  ==> Integral Setup <==

  ==> DiskDFJK: Density-Fitted J/K Matrices <==

    J tasked:                  Yes
    K tasked:                  Yes
    wK tasked:                 Yes
    Omega:               2.000E-01
    OpenMP threads:              8
    Integrals threads:           8
    Memory [MiB]:             5888
    Algorithm:                Core
    Integral Cache:           NONE
    Schwarz Cutoff:          1E-12
    Fitting Condition:       1E-10

   => Auxiliary Basis Set <=

  Basis Set: (AUG-CC-PVDZ AUX)
    Blend: AUG-CC-PVDZ-JKFIT
    Number of shells: 596
    Number of basis function: 1792
    Number of Cartesian functions: 2081
    Spherical Harmonics?: true
    Max angular momentum: 3

  Cached 100.0% of DFT collocation blocks in 5.425 [GiB].

  Minimum eigenvalue in the overlap matrix is 1.4533736152E-06.
  Using Symmetric Orthogonalization.

  SCF Guess: Superposition of Atomic Densities via on-the-fly atomic UHF.

  ==> Iterations <==

                           Total Energy        Delta E     RMS |[F,P]|

   @DF-RKS iter SAD: -1263.40698185401493   -1.26341e+03   0.00000e+00 
   @DF-RKS iter   1: -1263.98796202546691   -5.80980e-01   2.53843e-03 DIIS
   @DF-RKS iter   2: -1263.98904284265564   -1.08082e-03   2.73625e-03 DIIS
   @DF-RKS iter   3: -1264.60879751056405   -6.19755e-01   5.16860e-04 DIIS
   @DF-RKS iter   4: -1264.63109477584317   -2.22973e-02   1.88663e-04 DIIS
   @DF-RKS iter   5: -1264.63429609455534   -3.20132e-03   5.28103e-05 DIIS
   @DF-RKS iter   6: -1264.63458889638014   -2.92802e-04   1.37154e-05 DIIS
   @DF-RKS iter   7: -1264.63461690595864   -2.80096e-05   4.65234e-06 DIIS
   @DF-RKS iter   8: -1264.63462199368360   -5.08772e-06   1.89425e-06 DIIS
   @DF-RKS iter   9: -1264.63462321813108   -1.22445e-06   1.22240e-06 DIIS
   @DF-RKS iter  10: -1264.63462355792240   -3.39791e-07   3.72924e-07 DIIS
  Energy and wave function converged.


  ==> Post-Iterations <==

    Orbital Energies [Eh]
    ---------------------

    Doubly Occupied:                                                      

       1A    -89.064427     2A    -24.872430     3A    -24.859581  
       4A    -19.296151     5A    -19.291362     6A    -19.281442  
       7A    -14.527748     8A    -10.500957     9A    -10.449105  
      10A    -10.429519    11A    -10.399286    12A    -10.371519  
      13A    -10.348333    14A    -10.344500    15A    -10.342528  
      16A    -10.340882    17A    -10.336766    18A     -8.081887  
      19A     -6.031750    20A     -6.027632    21A     -6.020685  
      22A     -1.378102    23A     -1.318097    24A     -1.182603  
      25A     -1.172159    26A     -1.132727    27A     -1.084700  
      28A     -0.992594    29A     -0.931116    30A     -0.896184  
      31A     -0.880775    32A     -0.859550    33A     -0.785689  
      34A     -0.757630    35A     -0.744023    36A     -0.733145  
      37A     -0.688222    38A     -0.669607    39A     -0.660131  
      40A     -0.643657    41A     -0.635529    42A     -0.621465  
      43A     -0.583577    44A     -0.573091    45A     -0.561697  
      46A     -0.556147    47A     -0.550398    48A     -0.548380  
      49A     -0.540838    50A     -0.532781    51A     -0.528811  
      52A     -0.520926    53A     -0.508476    54A     -0.504682  
      55A     -0.495466    56A     -0.492976    57A     -0.486527  
      58A     -0.473737    59A     -0.466766    60A     -0.434304  
      61A     -0.419548    62A     -0.413838    63A     -0.391206  
      64A     -0.364894    65A     -0.360471    66A     -0.332839  
      67A     -0.326214  

    Virtual:                                                              

      68A     -0.046926    69A      0.014396    70A      0.027385  
      71A      0.033886    72A      0.037339    73A      0.043017  
      74A      0.048965    75A      0.052607    76A      0.059291  
      77A      0.065649    78A      0.068967    79A      0.074838  
      80A      0.080219    81A      0.083076    82A      0.089504  
      83A      0.095144    84A      0.103785    85A      0.108745  
      86A      0.111563    87A      0.117156    88A      0.118334  
      89A      0.120521    90A      0.126496    91A      0.128943  
      92A      0.134589    93A      0.137952    94A      0.138626  
      95A      0.143352    96A      0.150740    97A      0.153367  
      98A      0.155268    99A      0.161468   100A      0.164673  
     101A      0.168164   102A      0.172216   103A      0.175235  
     104A      0.177840   105A      0.179645   106A      0.181145  
     107A      0.185995   108A      0.191721   109A      0.197293  
     110A      0.200065   111A      0.202143   112A      0.206977  
     113A      0.211532   114A      0.212637   115A      0.222725  
     116A      0.223387   117A      0.228499   118A      0.232577  
     119A      0.235868   120A      0.238134   121A      0.240943  
     122A      0.246220   123A      0.251505   124A      0.256484  
     125A      0.259872   126A      0.261568   127A      0.267859  
     128A      0.271684   129A      0.276273   130A      0.279460  
     131A      0.282808   132A      0.284996   133A      0.286128  
     134A      0.289682   135A      0.291084   136A      0.298801  
     137A      0.302818   138A      0.306267   139A      0.310528  
     140A      0.313897   141A      0.319677   142A      0.323549  
     143A      0.324588   144A      0.334405   145A      0.340161  
     146A      0.341355   147A      0.348545   148A      0.351032  
     149A      0.352000   150A      0.358217   151A      0.360836  
     152A      0.369319   153A      0.369858   154A      0.370484  
     155A      0.379115   156A      0.381025   157A      0.382633  
     158A      0.386212   159A      0.390400   160A      0.396506  
     161A      0.403391   162A      0.408154   163A      0.412865  
     164A      0.414165   165A      0.418551   166A      0.421766  
     167A      0.424141   168A      0.431846   169A      0.434097  
     170A      0.439102   171A      0.441136   172A      0.447513  
     173A      0.454292   174A      0.465609   175A      0.470824  
     176A      0.478302   177A      0.485776   178A      0.488135  
     179A      0.488900   180A      0.496431   181A      0.504251  
     182A      0.507522   183A      0.511212   184A      0.511566  
     185A      0.519245   186A      0.522874   187A      0.528248  
     188A      0.531882   189A      0.535899   190A      0.540704  
     191A      0.546943   192A      0.551221   193A      0.553759  
     194A      0.560427   195A      0.566844   196A      0.571531  
     197A      0.576351   198A      0.584138   199A      0.587301  
     200A      0.595304   201A      0.604872   202A      0.606279  
     203A      0.611363   204A      0.616260   205A      0.623186  
     206A      0.627267   207A      0.632450   208A      0.635424  
     209A      0.637458   210A      0.643526   211A      0.645766  
     212A      0.651531   213A      0.658686   214A      0.661406  
     215A      0.671061   216A      0.674492   217A      0.677302  
     218A      0.682431   219A      0.686788   220A      0.691428  
     221A      0.698607   222A      0.705368   223A      0.706638  
     224A      0.710673   225A      0.720305   226A      0.728823  
     227A      0.731366   228A      0.740195   229A      0.748378  
     230A      0.754576   231A      0.759794   232A      0.765367  
     233A      0.772169   234A      0.777219   235A      0.783175  
     236A      0.794343   237A      0.797436   238A      0.801140  
     239A      0.812555   240A      0.817225   241A      0.820742  
     242A      0.827743   243A      0.832347   244A      0.839376  
     245A      0.844442   246A      0.846583   247A      0.852919  
     248A      0.859507   249A      0.862337   250A      0.867948  
     251A      0.876928   252A      0.886840   253A      0.894153  
     254A      0.905384   255A      0.915862   256A      0.921926  
     257A      0.925666   258A      0.937613   259A      0.947289  
     260A      0.951973   261A      0.960923   262A      0.975058  
     263A      0.981121   264A      0.983538   265A      1.001894  
     266A      1.005648   267A      1.015527   268A      1.022223  
     269A      1.029030   270A      1.043262   271A      1.045644  
     272A      1.062701   273A      1.078173   274A      1.081146  
     275A      1.091617   276A      1.094932   277A      1.107133  
     278A      1.110657   279A      1.119064   280A      1.134186  
     281A      1.139223   282A      1.146066   283A      1.154994  
     284A      1.158756   285A      1.169404   286A      1.188075  
     287A      1.192469   288A      1.199026   289A      1.210308  
     290A      1.210879   291A      1.226956   292A      1.231935  
     293A      1.252313   294A      1.255355   295A      1.260704  
     296A      1.288099   297A      1.293098   298A      1.295097  
     299A      1.307620   300A      1.315852   301A      1.327354  
     302A      1.336569   303A      1.341164   304A      1.354324  
     305A      1.359214   306A      1.367862   307A      1.373969  
     308A      1.381868   309A      1.394654   310A      1.398610  
     311A      1.413183   312A      1.421094   313A      1.425717  
     314A      1.432480   315A      1.446047   316A      1.446682  
     317A      1.465940   318A      1.482112   319A      1.488112  
     320A      1.492658   321A      1.504889   322A      1.510395  
     323A      1.522857   324A      1.533747   325A      1.550769  
     326A      1.552850   327A      1.564768   328A      1.565101  
     329A      1.571678   330A      1.577310   331A      1.598764  
     332A      1.609271   333A      1.611842   334A      1.618251  
     335A      1.619173   336A      1.624597   337A      1.632178  
     338A      1.642232   339A      1.649361   340A      1.658991  
     341A      1.675153   342A      1.680081   343A      1.688825  
     344A      1.699449   345A      1.715264   346A      1.720243  
     347A      1.726827   348A      1.738712   349A      1.749476  
     350A      1.751711   351A      1.766312   352A      1.774430  
     353A      1.778252   354A      1.792347   355A      1.800804  
     356A      1.815458   357A      1.822393   358A      1.831396  
     359A      1.839370   360A      1.857243   361A      1.863736  
     362A      1.867297   363A      1.875207   364A      1.880089  
     365A      1.887241   366A      1.905544   367A      1.912099  
     368A      1.916870   369A      1.930765   370A      1.939381  
     371A      1.958030   372A      1.963614   373A      1.967671  
     374A      1.980983   375A      1.986210   376A      1.996470  
     377A      2.006914   378A      2.011323   379A      2.029587  
     380A      2.037603   381A      2.053312   382A      2.057572  
     383A      2.064790   384A      2.079749   385A      2.088405  
     386A      2.104550   387A      2.112118   388A      2.115421  
     389A      2.136915   390A      2.142203   391A      2.152289  
     392A      2.167312   393A      2.181654   394A      2.190351  
     395A      2.209543   396A      2.214871   397A      2.221339  
     398A      2.233278   399A      2.237176   400A      2.252654  
     401A      2.273333   402A      2.293047   403A      2.300595  
     404A      2.324053   405A      2.333214   406A      2.338788  
     407A      2.346112   408A      2.355561   409A      2.356298  
     410A      2.364731   411A      2.379582   412A      2.416880  
     413A      2.427740   414A      2.438223   415A      2.448377  
     416A      2.453101   417A      2.496905   418A      2.510291  
     419A      2.529075   420A      2.566803   421A      2.598809  
     422A      2.607126   423A      2.617194   424A      2.638993  
     425A      2.650993   426A      2.674426   427A      2.697791  
     428A      2.702587   429A      2.707676   430A      2.719383  
     431A      2.745775   432A      2.757808   433A      2.820291  
     434A      2.865722   435A      2.887150   436A      2.967378  
     437A      2.976640   438A      3.026029   439A      3.042536  
     440A      3.114699   441A      3.172410   442A      3.206046  
     443A      3.381226   444A      3.390542   445A      3.404487  
     446A      3.438022   447A      3.459591   448A      3.471455  
     449A      3.482632   450A      3.500098   451A      3.517901  
     452A      3.525320   453A      3.549155   454A      3.571716  
     455A      3.576711   456A      3.614711   457A      3.638444  
     458A      3.710501   459A      3.736603   460A      3.761029  
     461A      3.809404   462A      3.832597   463A      3.914936  
     464A      3.978033   465A      4.038063   466A      4.477840  
     467A      4.643357   468A      4.673987   469A      4.726467  
     470A      4.731048   471A      4.755075   472A      4.766107  
     473A      4.795039   474A      4.829782   475A      4.890608  
     476A      4.911837  

    Final Occupation by Irrep:
              A 
    DOCC [    67 ]

  @DF-RKS Final Energy: -1264.63462355792240

   => Energetics <=

    Nuclear Repulsion Energy =           1342.0462631255809356
    One-Electron Energy =               -4403.9152014938435968
    Two-Electron Energy =                1893.2623253845108593
    DFT Exchange-Correlation Energy =     -96.0116012992006347
    Empirical Dispersion Energy =          -0.0164092749700940
    VV10 Nonlocal Energy =                  0.0000000000000000
    Total Energy =                      -1264.6346235579226231

Computation Completed


Properties will be evaluated at  -0.000000,   0.000000,   0.000000 [a0]

Properties computed using the SCF density matrix

  Nuclear Dipole Moment: [e a0]
     X:    19.2991      Y:    -1.9829      Z:    -7.3297

  Electronic Dipole Moment: [e a0]
     X:   -17.5664      Y:     1.6668      Z:     6.7157

  Dipole Moment: [e a0]
     X:     1.7327      Y:    -0.3162      Z:    -0.6140     Total:     1.8653

  Dipole Moment: [D]
     X:     4.4042      Y:    -0.8036      Z:    -1.5607     Total:     4.7411


*** tstop() called on cpu-spot-dy-c5n2xlarge-1 at Tue Jun 22 15:11:52 2021
Module time:
	user time   =     939.55 seconds =      15.66 minutes
	system time =       9.15 seconds =       0.15 minutes
	total time  =        127 seconds =       2.12 minutes
Total time:
	user time   =    3174.92 seconds =      52.92 minutes
	system time =      32.71 seconds =       0.55 minutes
	total time  =        431 seconds =       7.18 minutes

       N-Body: Complex Energy (fragments = (1, 2), basis = (1, 2): -1264.63462355792240)

   ==> N-Body: Counterpoise Corrected (CP) energies <==

   n-Body     Total Energy [Eh]       I.E. [kcal/mol]      Delta [kcal/mol]
        1    -1264.624467675646        0.000000000000        0.000000000000
        2    -1264.633809235655       -5.861917405673       -5.861917405673

   => Loading Basis Set <=

    Name: DEF2-SVP
    Role: ORBITAL
    Keyword: BASIS
    atoms 1             entry N          line   110 file /fsx/users/francis/anaconda3/envs/poltype-dev/share/psi4/basis/def2-svp.gbs 
    atoms 2-3, 6-12, 14 entry C          line    90 file /fsx/users/francis/anaconda3/envs/poltype-dev/share/psi4/basis/def2-svp.gbs 
    atoms 4-5           entry F          line   150 file /fsx/users/francis/anaconda3/envs/poltype-dev/share/psi4/basis/def2-svp.gbs 
    atoms 13            entry S          line   328 file /fsx/users/francis/anaconda3/envs/poltype-dev/share/psi4/basis/def2-svp.gbs 
    atoms 15-16, 24     entry O          line   130 file /fsx/users/francis/anaconda3/envs/poltype-dev/share/psi4/basis/def2-svp.gbs 
    atoms 17-23, 25-26  entry H          line    15 file /fsx/users/francis/anaconda3/envs/poltype-dev/share/psi4/basis/def2-svp.gbs 

CP Energy =  -0.009342
    Psi4 stopped on: Tuesday, 22 June 2021 03:11PM
    Psi4 wall time for execution: 0:07:11.46

*** Psi4 exiting successfully. Buy a developer a beer!
