
    -----------------------------------------------------------------------
          Psi4: An Open-Source Ab Initio Electronic Structure Package
                               Psi4 1.3.2 release

                         Git: Rev {HEAD} ecbda83 


    R. M. Parrish, L. A. Burns, D. G. A. Smith, A. C. Simmonett,
    A. E. DePrince III, E. G. Hohenstein, U. Bozkaya, A. Yu. Sokolov,
    R. Di Remigio, R. M. Richard, J. F. Gonthier, A. M. James,
    H. R. McAlexander, A. Kumar, M. Saitow, X. Wang, B. P. Pritchard,
    P. Verma, H. F. Schaefer III, K. Patkowski, R. A. King, E. F. Valeev,
    F. A. Evangelista, J. M. Turney, T. D. Crawford, and C. D. Sherrill,
    J. Chem. Theory Comput. 13(7) pp 3185--3197 (2017).
    (doi: 10.1021/acs.jctc.7b00174)


                         Additional Contributions by
    P. Kraus, H. Kruse, M. H. Lechner, M. C. Schieber, R. A. Shaw,
    A. Alenaizan, R. Galvelis, Z. L. Glick, S. Lehtola, and J. P. Misiewicz

    -----------------------------------------------------------------------


    Psi4 started on: Tuesday, 22 June 2021 06:23PM

    Process ID: 30652
    Host:       cpu-spot-dy-c5n2xlarge-1
    PSIDATADIR: /fsx/users/francis/anaconda3/envs/poltype-dev/share/psi4
    Memory:     500.0 MiB
    Threads:    1
    
  ==> Input File <==

--------------------------------------------------------------------------
molecule { 
0 1
  N                 -0.9822580    -1.4639280     0.2190630
  C                 -2.2712640    -1.1572690     0.5671010
  C                 -2.6379910     0.3633640     0.5666410
  F                 -3.6579160     0.5420250    -0.3406010
  F                 -3.1158940     0.6744710     1.8203130
  C                 -1.4959220     1.3801050     0.2166770
  C                 -0.1658920     0.8276470    -0.1304690
  C                  0.8956910     1.6960470    -0.4710440
  C                  2.1574060     1.1914630    -0.8096280
  C                  2.3864770    -0.2103720    -0.8315260
  C                  1.3290480    -1.0771030    -0.4793250
  C                  0.0633070    -0.5762150    -0.1288800
  S                  3.9095680    -0.9821520    -1.3105370
  C                  5.2125960    -0.0491170    -0.4644460
  O                 -3.0629410    -2.0442960     0.8512630
  O                 -1.7123770     2.5882940     0.2314480
  H                  2.9425560     1.8959600    -1.0821180
  H                  0.7067560     2.7699810    -0.4684470
  H                 -0.8101430    -2.4600130     0.2293830
  H                  1.4909330    -2.1558700    -0.5004420
  H                  5.4914020     0.8142880    -1.0760090
  H                  4.8544660     0.2897710     0.5124480
  H                  6.0830610    -0.6978050    -0.3277450
--
0 1
  O                  2.8668652     1.0720694     1.3863224
  H                  2.2346002     0.4030144     1.6502544
  H                  2.4051912     1.9091274     1.3286484
}
memory 16GB
set_num_threads(8)
psi4_io.set_default_path("/scratch/Psi4-ligand")
set maxiter 500
set freeze_core True
set PROPERTIES_ORIGIN ["COM"]
e_dim= energy('wb97x-d/aug-cc-pVDZ',bsse_type='cp')

psi4.print_out('CP Energy = %10.6f' % (e_dim))
clean()
--------------------------------------------------------------------------

  Memory set to  14.901 GiB by Python driver.
  Threads set to 8 by Python driver.


   ===> N-Body Interaction Abacus <===
        BSSE Treatment:                     cp
        Number of 1-body computations:     4
        Number of 2-body computations:     1

   ==> N-Body: Now computing 1-body complexes <==


       N-Body: Computing complex (1/4) with fragments (2,) in the basis of fragments (2,).


*** tstart() called on cpu-spot-dy-c5n2xlarge-1
*** at Tue Jun 22 18:23:44 2021

   => Loading Basis Set <=

    Name: AUG-CC-PVDZ
    Role: ORBITAL
    Keyword: BASIS
    atoms 1   entry O          line   250 file /fsx/users/francis/anaconda3/envs/poltype-dev/share/psi4/basis/aug-cc-pvdz.gbs 
    atoms 2-3 entry H          line    36 file /fsx/users/francis/anaconda3/envs/poltype-dev/share/psi4/basis/aug-cc-pvdz.gbs 


         ---------------------------------------------------------
                                   SCF
               by Justin Turney, Rob Parrish, Andy Simmonett
                          and Daniel G. A. Smith
                              RKS Reference
                        8 Threads,  15258 MiB Core
         ---------------------------------------------------------

  ==> Geometry <==

    Molecular point group: c1
    Full point group: C1

    Geometry (in Angstrom), charge = 0, multiplicity = 1:

       Center              X                  Y                   Z               Mass       
    ------------   -----------------  -----------------  -----------------  -----------------
         O            2.700965645701     0.962838862055     1.365403566897    15.994914619570
         H            2.068700645701     0.293783862055     1.629335566897     1.007825032230
         H            2.239291645701     1.799896862055     1.307729566897     1.007825032230

  Running in c1 symmetry.

  Rotational constants: A =     12.09916  B =      0.09507  C =      0.09460 [cm^-1]
  Rotational constants: A = 362723.58317  B =   2850.13286  C =   2836.13245 [MHz]
  Nuclear repulsion =    9.182775984572395

  Charge       = 0
  Multiplicity = 1
  Electrons    = 10
  Nalpha       = 5
  Nbeta        = 5

  ==> Algorithm <==

  SCF Algorithm Type is DF.
  DIIS enabled.
  MOM disabled.
  Fractional occupation disabled.
  Guess Type is SAD.
  Energy threshold   = 1.00e-06
  Density threshold  = 1.00e-06
  Integral threshold = 0.00e+00

  ==> Primary Basis <==

  Basis Set: AUG-CC-PVDZ
    Blend: AUG-CC-PVDZ
    Number of shells: 19
    Number of basis function: 41
    Number of Cartesian functions: 43
    Spherical Harmonics?: true
    Max angular momentum: 2

  ==> DFT Potential <==

   => Composite Functional: WB97X-D <= 

    wB97X-D Hyb-GGA Exchange-Correlation Functional

    J.-D. Chai and M. Head-Gordon, Phys. Chem. Chem. Phys. 10, 6615 (2008)

    Deriv               =              1
    GGA                 =           TRUE
    Meta                =          FALSE

    Exchange Hybrid     =           TRUE
    MP2 Hybrid          =          FALSE

   => Exchange-Correlation Functionals <=

    1.0000   wB97D range-separated functional

   => Exact (HF) Exchange <=

    0.7780            HF,LR [omega = 0.2000]
    0.2220               HF 

   => Molecular Quadrature <=

    Radial Scheme          =       TREUTLER
    Pruning Scheme         =           FLAT
    Nuclear Scheme         =       TREUTLER

    BS radius alpha        =              1
    Pruning alpha          =              1
    Radial Points          =             75
    Spherical Points       =            302
    Total Points           =          67950
    Total Blocks           =            571
    Max Points             =            256
    Max Functions          =             41

   => WB97X-D: Empirical Dispersion <=

    Chai and Head-Gordon Dispersion Correction
    Chai, J.-D.; Head-Gordon, M. (2010), J. Chem. Phys., 132: 6615-6620

        s6 =       1.000000

   => Loading Basis Set <=

    Name: (AUG-CC-PVDZ AUX)
    Role: JKFIT
    Keyword: DF_BASIS_SCF
    atoms 1   entry O          line   270 file /fsx/users/francis/anaconda3/envs/poltype-dev/share/psi4/basis/aug-cc-pvdz-jkfit.gbs 
    atoms 2-3 entry H          line    70 file /fsx/users/francis/anaconda3/envs/poltype-dev/share/psi4/basis/aug-cc-pvdz-jkfit.gbs 

  ==> Pre-Iterations <==

   -------------------------------------------------------
    Irrep   Nso     Nmo     Nalpha   Nbeta   Ndocc  Nsocc
   -------------------------------------------------------
     A         41      41       0       0       0       0
   -------------------------------------------------------
    Total      41      41       5       5       5       0
   -------------------------------------------------------

  ==> Integral Setup <==

  ==> DiskDFJK: Density-Fitted J/K Matrices <==

    J tasked:                  Yes
    K tasked:                  Yes
    wK tasked:                 Yes
    Omega:               2.000E-01
    OpenMP threads:              8
    Integrals threads:           8
    Memory [MiB]:            11363
    Algorithm:                Core
    Integral Cache:           NONE
    Schwarz Cutoff:          1E-12
    Fitting Condition:       1E-10

   => Auxiliary Basis Set <=

  Basis Set: (AUG-CC-PVDZ AUX)
    Blend: AUG-CC-PVDZ-JKFIT
    Number of shells: 52
    Number of basis function: 150
    Number of Cartesian functions: 171
    Spherical Harmonics?: true
    Max angular momentum: 3

  Cached 100.0% of DFT collocation blocks in 0.079 [GiB].

  Minimum eigenvalue in the overlap matrix is 2.8030175657E-03.
  Using Symmetric Orthogonalization.

  SCF Guess: Superposition of Atomic Densities via on-the-fly atomic UHF.

  ==> Iterations <==

                           Total Energy        Delta E     RMS |[F,P]|

   @DF-RKS iter SAD:   -75.95444911150565   -7.59544e+01   0.00000e+00 
   @DF-RKS iter   1:   -76.27474584185870   -3.20297e-01   1.51127e-02 DIIS
   @DF-RKS iter   2:   -76.22870237231228    4.60435e-02   1.77753e-02 DIIS
   @DF-RKS iter   3:   -76.41935106239796   -1.90649e-01   3.63528e-04 DIIS
   @DF-RKS iter   4:   -76.41949579338754   -1.44731e-04   9.76921e-05 DIIS
   @DF-RKS iter   5:   -76.41950358678378   -7.79340e-06   1.85271e-05 DIIS
   @DF-RKS iter   6:   -76.41950390760864   -3.20825e-07   2.01591e-06 DIIS
   @DF-RKS iter   7:   -76.41950391812949   -1.05208e-08   2.53771e-07 DIIS
  Energy and wave function converged.


  ==> Post-Iterations <==

    Orbital Energies [Eh]
    ---------------------

    Doubly Occupied:                                                      

       1A    -19.278031     2A     -1.120297     3A     -0.632849  
       4A     -0.478589     5A     -0.406875  

    Virtual:                                                              

       6A      0.034100     7A      0.060961     8A      0.162252  
       9A      0.190712    10A      0.199640    11A      0.217825  
      12A      0.256160    13A      0.301842    14A      0.362117  
      15A      0.378597    16A      0.408463    17A      0.518379  
      18A      0.580623    19A      0.604105    20A      0.717536  
      21A      0.809935    22A      0.980192    23A      0.991775  
      24A      1.034730    25A      1.175604    26A      1.289812  
      27A      1.316122    28A      1.397877    29A      1.818957  
      30A      1.851660    31A      1.921198    32A      2.230898  
      33A      2.234460    34A      2.379876    35A      2.498372  
      36A      2.710708    37A      3.372617    38A      3.384769  
      39A      3.402952    40A      3.740209    41A      3.972209  

    Final Occupation by Irrep:
              A 
    DOCC [     5 ]

  @DF-RKS Final Energy:   -76.41950391812949

   => Energetics <=

    Nuclear Repulsion Energy =              9.1827759845723946
    One-Electron Energy =                -122.9762809176569647
    Two-Electron Energy =                  43.8479718120595194
    DFT Exchange-Correlation Energy =      -6.4739402334272125
    Empirical Dispersion Energy =          -0.0000305636772449
    VV10 Nonlocal Energy =                  0.0000000000000000
    Total Energy =                        -76.4195039181295073

Computation Completed


Properties will be evaluated at   4.988408,   1.837267,   2.602049 [a0]

Properties computed using the SCF density matrix

  Nuclear Dipole Moment: [e a0]
     X:    -0.9105      Y:     0.1398      Z:     0.1717

  Electronic Dipole Moment: [e a0]
     X:     0.2092      Y:    -0.0321      Z:    -0.0394

  Dipole Moment: [e a0]
     X:    -0.7012      Y:     0.1077      Z:     0.1322     Total:     0.7217

  Dipole Moment: [D]
     X:    -1.7824      Y:     0.2737      Z:     0.3361     Total:     1.8343


*** tstop() called on cpu-spot-dy-c5n2xlarge-1 at Tue Jun 22 18:23:45 2021
Module time:
	user time   =       8.10 seconds =       0.13 minutes
	system time =       0.29 seconds =       0.00 minutes
	total time  =          1 seconds =       0.02 minutes
Total time:
	user time   =       8.10 seconds =       0.13 minutes
	system time =       0.29 seconds =       0.00 minutes
	total time  =          1 seconds =       0.02 minutes

       N-Body: Complex Energy (fragments = (2,), basis = (2,):   -76.41950391812949)

       N-Body: Computing complex (2/4) with fragments (2,) in the basis of fragments (1, 2).


*** tstart() called on cpu-spot-dy-c5n2xlarge-1
*** at Tue Jun 22 18:23:45 2021

   => Loading Basis Set <=

    Name: AUG-CC-PVDZ
    Role: ORBITAL
    Keyword: BASIS
    atoms 1             entry N          line   214 file /fsx/users/francis/anaconda3/envs/poltype-dev/share/psi4/basis/aug-cc-pvdz.gbs 
    atoms 2-3, 6-12, 14 entry C          line   178 file /fsx/users/francis/anaconda3/envs/poltype-dev/share/psi4/basis/aug-cc-pvdz.gbs 
    atoms 4-5           entry F          line   286 file /fsx/users/francis/anaconda3/envs/poltype-dev/share/psi4/basis/aug-cc-pvdz.gbs 
    atoms 13            entry S          line   698 file /fsx/users/francis/anaconda3/envs/poltype-dev/share/psi4/basis/aug-cc-pvdz.gbs 
    atoms 15-16, 24     entry O          line   250 file /fsx/users/francis/anaconda3/envs/poltype-dev/share/psi4/basis/aug-cc-pvdz.gbs 
    atoms 17-23, 25-26  entry H          line    36 file /fsx/users/francis/anaconda3/envs/poltype-dev/share/psi4/basis/aug-cc-pvdz.gbs 


         ---------------------------------------------------------
                                   SCF
               by Justin Turney, Rob Parrish, Andy Simmonett
                          and Daniel G. A. Smith
                              RKS Reference
                        8 Threads,  15258 MiB Core
         ---------------------------------------------------------

  ==> Geometry <==

    Molecular point group: c1
    Full point group: C1

    Geometry (in Angstrom), charge = 0, multiplicity = 1:

       Center              X                  Y                   Z               Mass       
    ------------   -----------------  -----------------  -----------------  -----------------
      Gh(N)          -1.148157554299    -1.573158537945     0.198144166897    14.003074004430
      Gh(C)          -2.437163554299    -1.266499537945     0.546182166897    12.000000000000
      Gh(C)          -2.803890554299     0.254133462055     0.545722166897    12.000000000000
      Gh(F)          -3.823815554299     0.432794462055    -0.361519833103    18.998403162730
      Gh(F)          -3.281793554299     0.565240462055     1.799394166897    18.998403162730
      Gh(C)          -1.661821554299     1.270874462055     0.195758166897    12.000000000000
      Gh(C)          -0.331791554299     0.718416462055    -0.151387833103    12.000000000000
      Gh(C)           0.729791445701     1.586816462055    -0.491962833103    12.000000000000
      Gh(C)           1.991506445701     1.082232462055    -0.830546833103    12.000000000000
      Gh(C)           2.220577445701    -0.319602537945    -0.852444833103    12.000000000000
      Gh(C)           1.163148445701    -1.186333537945    -0.500243833103    12.000000000000
      Gh(C)          -0.102592554299    -0.685445537945    -0.149798833103    12.000000000000
      Gh(S)           3.743668445701    -1.091382537945    -1.331455833103    31.972071174400
      Gh(C)           5.046696445701    -0.158347537945    -0.485364833103    12.000000000000
      Gh(O)          -3.228840554299    -2.153526537945     0.830344166897    15.994914619570
      Gh(O)          -1.878276554299     2.479063462055     0.210529166897    15.994914619570
      Gh(H)           2.776656445701     1.786729462055    -1.103036833103     1.007825032230
      Gh(H)           0.540856445701     2.660750462055    -0.489365833103     1.007825032230
      Gh(H)          -0.976042554299    -2.569243537945     0.208464166897     1.007825032230
      Gh(H)           1.325033445701    -2.265100537945    -0.521360833103     1.007825032230
      Gh(H)           5.325502445701     0.705057462055    -1.096927833103     1.007825032230
      Gh(H)           4.688566445701     0.180540462055     0.491529166897     1.007825032230
      Gh(H)           5.917161445701    -0.807035537945    -0.348663833103     1.007825032230
         O            2.700965645701     0.962838862055     1.365403566897    15.994914619570
         H            2.068700645701     0.293783862055     1.629335566897     1.007825032230
         H            2.239291645701     1.799896862055     1.307729566897     1.007825032230

  Running in c1 symmetry.

  Rotational constants: A =      0.03116  B =      0.00754  C =      0.00671 [cm^-1]
  Rotational constants: A =    934.08707  B =    226.08501  C =    201.05983 [MHz]
  Nuclear repulsion =    9.182775984572395

  Charge       = 0
  Multiplicity = 1
  Electrons    = 10
  Nalpha       = 5
  Nbeta        = 5

  ==> Algorithm <==

  SCF Algorithm Type is DF.
  DIIS enabled.
  MOM disabled.
  Fractional occupation disabled.
  Guess Type is SAD.
  Energy threshold   = 1.00e-06
  Density threshold  = 1.00e-06
  Integral threshold = 0.00e+00

  ==> Primary Basis <==

  Basis Set: AUG-CC-PVDZ
    Blend: AUG-CC-PVDZ
    Number of shells: 200
    Number of basis function: 476
    Number of Cartesian functions: 510
    Spherical Harmonics?: true
    Max angular momentum: 2

  ==> DFT Potential <==

   => Composite Functional: WB97X-D <= 

    wB97X-D Hyb-GGA Exchange-Correlation Functional

    J.-D. Chai and M. Head-Gordon, Phys. Chem. Chem. Phys. 10, 6615 (2008)

    Deriv               =              1
    GGA                 =           TRUE
    Meta                =          FALSE

    Exchange Hybrid     =           TRUE
    MP2 Hybrid          =          FALSE

   => Exchange-Correlation Functionals <=

    1.0000   wB97D range-separated functional

   => Exact (HF) Exchange <=

    0.7780            HF,LR [omega = 0.2000]
    0.2220               HF 

   => Molecular Quadrature <=

    Radial Scheme          =       TREUTLER
    Pruning Scheme         =           FLAT
    Nuclear Scheme         =       TREUTLER

    BS radius alpha        =              1
    Pruning alpha          =              1
    Radial Points          =             75
    Spherical Points       =            302
    Total Points           =         588900
    Total Blocks           =           4385
    Max Points             =            256
    Max Functions          =            425

   => WB97X-D: Empirical Dispersion <=

    Chai and Head-Gordon Dispersion Correction
    Chai, J.-D.; Head-Gordon, M. (2010), J. Chem. Phys., 132: 6615-6620

        s6 =       1.000000

   => Loading Basis Set <=

    Name: (AUG-CC-PVDZ AUX)
    Role: JKFIT
    Keyword: DF_BASIS_SCF
    atoms 1             entry N          line   212 file /fsx/users/francis/anaconda3/envs/poltype-dev/share/psi4/basis/aug-cc-pvdz-jkfit.gbs 
    atoms 2-3, 6-12, 14 entry C          line   154 file /fsx/users/francis/anaconda3/envs/poltype-dev/share/psi4/basis/aug-cc-pvdz-jkfit.gbs 
    atoms 4-5           entry F          line   328 file /fsx/users/francis/anaconda3/envs/poltype-dev/share/psi4/basis/aug-cc-pvdz-jkfit.gbs 
    atoms 13            entry S          line   690 file /fsx/users/francis/anaconda3/envs/poltype-dev/share/psi4/basis/aug-cc-pvdz-jkfit.gbs 
    atoms 15-16, 24     entry O          line   270 file /fsx/users/francis/anaconda3/envs/poltype-dev/share/psi4/basis/aug-cc-pvdz-jkfit.gbs 
    atoms 17-23, 25-26  entry H          line    70 file /fsx/users/francis/anaconda3/envs/poltype-dev/share/psi4/basis/aug-cc-pvdz-jkfit.gbs 

  ==> Pre-Iterations <==

   -------------------------------------------------------
    Irrep   Nso     Nmo     Nalpha   Nbeta   Ndocc  Nsocc
   -------------------------------------------------------
     A        476     476       0       0       0       0
   -------------------------------------------------------
    Total     476     476       5       5       5       0
   -------------------------------------------------------

  ==> Integral Setup <==

  ==> DiskDFJK: Density-Fitted J/K Matrices <==

    J tasked:                  Yes
    K tasked:                  Yes
    wK tasked:                 Yes
    Omega:               2.000E-01
    OpenMP threads:              8
    Integrals threads:           8
    Memory [MiB]:             5760
    Algorithm:                Core
    Integral Cache:           NONE
    Schwarz Cutoff:          1E-12
    Fitting Condition:       1E-10

   => Auxiliary Basis Set <=

  Basis Set: (AUG-CC-PVDZ AUX)
    Blend: AUG-CC-PVDZ-JKFIT
    Number of shells: 596
    Number of basis function: 1792
    Number of Cartesian functions: 2081
    Spherical Harmonics?: true
    Max angular momentum: 3

  Cached 100.0% of DFT collocation blocks in 5.550 [GiB].

  Minimum eigenvalue in the overlap matrix is 1.0783875387E-06.
  Using Symmetric Orthogonalization.

  SCF Guess: Superposition of Atomic Densities via on-the-fly atomic UHF.

  ==> Iterations <==

                           Total Energy        Delta E     RMS |[F,P]|

   @DF-RKS iter SAD:   -75.95445813739798   -7.59545e+01   0.00000e+00 
   @DF-RKS iter   1:   -76.27567450627809   -3.21216e-01   1.30760e-03 DIIS
   @DF-RKS iter   2:   -76.22963618178433    4.60383e-02   1.53676e-03 DIIS
   @DF-RKS iter   3:   -76.42017948288668   -1.90543e-01   3.24288e-05 DIIS
   @DF-RKS iter   4:   -76.42033739256570   -1.57910e-04   9.12112e-06 DIIS
   @DF-RKS iter   5:   -76.42034640129765   -9.00873e-06   1.64645e-06 DIIS
   @DF-RKS iter   6:   -76.42034674887022   -3.47573e-07   1.90495e-07 DIIS
  Energy and wave function converged.


  ==> Post-Iterations <==

    Orbital Energies [Eh]
    ---------------------

    Doubly Occupied:                                                      

       1A    -19.278046     2A     -1.119931     3A     -0.632471  
       4A     -0.478142     5A     -0.406401  

    Virtual:                                                              

       6A      0.017128     7A      0.033960     8A      0.036729  
       9A      0.046873    10A      0.050646    11A      0.056661  
      12A      0.065863    13A      0.070497    14A      0.073545  
      15A      0.078224    16A      0.079531    17A      0.091818  
      18A      0.095168    19A      0.099181    20A      0.100591  
      21A      0.104658    22A      0.107855    23A      0.110880  
      24A      0.121432    25A      0.127097    26A      0.131882  
      27A      0.136857    28A      0.140358    29A      0.145220  
      30A      0.148055    31A      0.149784    32A      0.154631  
      33A      0.155317    34A      0.166253    35A      0.167367  
      36A      0.171847    37A      0.176274    38A      0.184563  
      39A      0.190132    40A      0.193265    41A      0.195851  
      42A      0.201460    43A      0.205676    44A      0.207825  
      45A      0.211371    46A      0.216961    47A      0.218577  
      48A      0.219521    49A      0.228645    50A      0.230956  
      51A      0.234033    52A      0.239012    53A      0.243616  
      54A      0.255872    55A      0.259199    56A      0.263089  
      57A      0.264166    58A      0.271093    59A      0.273155  
      60A      0.278984    61A      0.284741    62A      0.288449  
      63A      0.289301    64A      0.296314    65A      0.302281  
      66A      0.306879    67A      0.309323    68A      0.318185  
      69A      0.323884    70A      0.328632    71A      0.331549  
      72A      0.337513    73A      0.339589    74A      0.340523  
      75A      0.346404    76A      0.352733    77A      0.357958  
      78A      0.363761    79A      0.371594    80A      0.379788  
      81A      0.389026    82A      0.395793    83A      0.399757  
      84A      0.400444    85A      0.404833    86A      0.411572  
      87A      0.422500    88A      0.426780    89A      0.433553  
      90A      0.435914    91A      0.440491    92A      0.449591  
      93A      0.451741    94A      0.459366    95A      0.464405  
      96A      0.470734    97A      0.471646    98A      0.476204  
      99A      0.488049   100A      0.491073   101A      0.491723  
     102A      0.498879   103A      0.511875   104A      0.514159  
     105A      0.523229   106A      0.528053   107A      0.531448  
     108A      0.538540   109A      0.544046   110A      0.551265  
     111A      0.561049   112A      0.561504   113A      0.563743  
     114A      0.572460   115A      0.577946   116A      0.584633  
     117A      0.591623   118A      0.598566   119A      0.606994  
     120A      0.611976   121A      0.619850   122A      0.625789  
     123A      0.633321   124A      0.636021   125A      0.641115  
     126A      0.647825   127A      0.654671   128A      0.661883  
     129A      0.663194   130A      0.672518   131A      0.676907  
     132A      0.680126   133A      0.692451   134A      0.697304  
     135A      0.705857   136A      0.710025   137A      0.720711  
     138A      0.726282   139A      0.733163   140A      0.734076  
     141A      0.741181   142A      0.745043   143A      0.750811  
     144A      0.753862   145A      0.757901   146A      0.774280  
     147A      0.776314   148A      0.790224   149A      0.795029  
     150A      0.800301   151A      0.801880   152A      0.807942  
     153A      0.816589   154A      0.832219   155A      0.834249  
     156A      0.842791   157A      0.851424   158A      0.856584  
     159A      0.861393   160A      0.868153   161A      0.870392  
     162A      0.882396   163A      0.893677   164A      0.895737  
     165A      0.898929   166A      0.909064   167A      0.912768  
     168A      0.915375   169A      0.920332   170A      0.929123  
     171A      0.935279   172A      0.936895   173A      0.941716  
     174A      0.950687   175A      0.960741   176A      0.966203  
     177A      0.972919   178A      0.976039   179A      0.984896  
     180A      0.991321   181A      1.000959   182A      1.005981  
     183A      1.015919   184A      1.025067   185A      1.027295  
     186A      1.033516   187A      1.054370   188A      1.063472  
     189A      1.070286   190A      1.080950   191A      1.084220  
     192A      1.099603   193A      1.113228   194A      1.122515  
     195A      1.128197   196A      1.136399   197A      1.143215  
     198A      1.158193   199A      1.165362   200A      1.179455  
     201A      1.183303   202A      1.194005   203A      1.198548  
     204A      1.200415   205A      1.210787   206A      1.216041  
     207A      1.224681   208A      1.247132   209A      1.255287  
     210A      1.270485   211A      1.278202   212A      1.282527  
     213A      1.293166   214A      1.295125   215A      1.315475  
     216A      1.320381   217A      1.321916   218A      1.328930  
     219A      1.335093   220A      1.347145   221A      1.359486  
     222A      1.364777   223A      1.377179   224A      1.386834  
     225A      1.406141   226A      1.427516   227A      1.438177  
     228A      1.450110   229A      1.453593   230A      1.460990  
     231A      1.465539   232A      1.480466   233A      1.494297  
     234A      1.506683   235A      1.508959   236A      1.531972  
     237A      1.541893   238A      1.558337   239A      1.567813  
     240A      1.576638   241A      1.586058   242A      1.602936  
     243A      1.606818   244A      1.629511   245A      1.636824  
     246A      1.645365   247A      1.650275   248A      1.663539  
     249A      1.680612   250A      1.709229   251A      1.731518  
     252A      1.747739   253A      1.750223   254A      1.761829  
     255A      1.769528   256A      1.792808   257A      1.804659  
     258A      1.851101   259A      1.866081   260A      1.879085  
     261A      1.901721   262A      1.917506   263A      1.936971  
     264A      1.943267   265A      1.959426   266A      1.967716  
     267A      1.980434   268A      2.005875   269A      2.023160  
     270A      2.052270   271A      2.056720   272A      2.070990  
     273A      2.075375   274A      2.086775   275A      2.111848  
     276A      2.131507   277A      2.149776   278A      2.167999  
     279A      2.189515   280A      2.190913   281A      2.203660  
     282A      2.211572   283A      2.218978   284A      2.232570  
     285A      2.233903   286A      2.250481   287A      2.261377  
     288A      2.270653   289A      2.282321   290A      2.287049  
     291A      2.299323   292A      2.305897   293A      2.317172  
     294A      2.336225   295A      2.340206   296A      2.354498  
     297A      2.362593   298A      2.367395   299A      2.378423  
     300A      2.384152   301A      2.389027   302A      2.401943  
     303A      2.410153   304A      2.430515   305A      2.438696  
     306A      2.450504   307A      2.461185   308A      2.482253  
     309A      2.494060   310A      2.498411   311A      2.517619  
     312A      2.523730   313A      2.545589   314A      2.560407  
     315A      2.569017   316A      2.583186   317A      2.601824  
     318A      2.608588   319A      2.634175   320A      2.641519  
     321A      2.642122   322A      2.644867   323A      2.666494  
     324A      2.679073   325A      2.704513   326A      2.718105  
     327A      2.730385   328A      2.758305   329A      2.777964  
     330A      2.796046   331A      2.802940   332A      2.811601  
     333A      2.825695   334A      2.837557   335A      2.852954  
     336A      2.868685   337A      2.882150   338A      2.891617  
     339A      2.898966   340A      2.916454   341A      2.939783  
     342A      2.949377   343A      2.982423   344A      3.020629  
     345A      3.026488   346A      3.031275   347A      3.054883  
     348A      3.059562   349A      3.069889   350A      3.099700  
     351A      3.102328   352A      3.130307   353A      3.143823  
     354A      3.180383   355A      3.209286   356A      3.238200  
     357A      3.274073   358A      3.286898   359A      3.292138  
     360A      3.309771   361A      3.320934   362A      3.351712  
     363A      3.373911   364A      3.396052   365A      3.441454  
     366A      3.453466   367A      3.469489   368A      3.500605  
     369A      3.522329   370A      3.536973   371A      3.561159  
     372A      3.575966   373A      3.607061   374A      3.625872  
     375A      3.657481   376A      3.670728   377A      3.689950  
     378A      3.736782   379A      3.745388   380A      3.802678  
     381A      3.855660   382A      3.892252   383A      3.896952  
     384A      3.912401   385A      3.965969   386A      3.998953  
     387A      4.023630   388A      4.059822   389A      4.067614  
     390A      4.093306   391A      4.157320   392A      4.176481  
     393A      4.252605   394A      4.280956   395A      4.316432  
     396A      4.362094   397A      4.374815   398A      4.429522  
     399A      4.475409   400A      4.524537   401A      4.555466  
     402A      4.572531   403A      4.636546   404A      4.667541  
     405A      4.708025   406A      4.832411   407A      4.852838  
     408A      4.873041   409A      4.947197   410A      5.006055  
     411A      5.015092   412A      5.024948   413A      5.049433  
     414A      5.057979   415A      5.068030   416A      5.093633  
     417A      5.112071   418A      5.125330   419A      5.148034  
     420A      5.217991   421A      5.256886   422A      5.329904  
     423A      5.342879   424A      5.388500   425A      5.396883  
     426A      5.436206   427A      5.542483   428A      5.571744  
     429A      5.635539   430A      5.862479   431A      5.959571  
     432A      6.034798   433A      6.044977   434A      6.065967  
     435A      6.091647   436A      6.178715   437A      6.416359  
     438A      6.481635   439A      6.798967   440A      6.824616  
     441A      6.840604   442A      6.858941   443A      6.867588  
     444A      6.899370   445A      6.904295   446A      6.932854  
     447A      6.975312   448A      7.003694   449A      7.005809  
     450A      7.036226   451A      7.123769   452A      7.678188  
     453A      7.937602   454A      8.044393   455A      8.058672  
     456A      8.066421   457A      8.295791   458A     18.020212  
     459A     18.463094   460A     18.638224   461A     18.654377  
     462A     18.812371   463A     18.923614   464A     19.177802  
     465A     19.387404   466A     19.752880   467A     20.589017  
     468A     20.661821   469A     21.014544   470A     21.437610  
     471A     25.473012   472A     33.535824   473A     33.542211  
     474A     43.005010   475A     43.012847   476A    138.025124  

    Final Occupation by Irrep:
              A 
    DOCC [     5 ]

  @DF-RKS Final Energy:   -76.42034674887022

   => Energetics <=

    Nuclear Repulsion Energy =              9.1827759845723946
    One-Electron Energy =                -122.9807429215207577
    Two-Electron Energy =                  43.8522002633483936
    DFT Exchange-Correlation Energy =      -6.4745495115929987
    Empirical Dispersion Energy =          -0.0000305636772449
    VV10 Nonlocal Energy =                  0.0000000000000000
    Total Energy =                        -76.4203467488702159

Computation Completed


Properties will be evaluated at  -0.000000,   0.000000,  -0.000000 [a0]

Properties computed using the SCF density matrix

  Nuclear Dipole Moment: [e a0]
     X:    48.9736      Y:    18.5125      Z:    26.1922

  Electronic Dipole Moment: [e a0]
     X:   -49.6718      Y:   -18.4052      Z:   -26.0611

  Dipole Moment: [e a0]
     X:    -0.6982      Y:     0.1073      Z:     0.1310     Total:     0.7184

  Dipole Moment: [D]
     X:    -1.7745      Y:     0.2726      Z:     0.3330     Total:     1.8260


*** tstop() called on cpu-spot-dy-c5n2xlarge-1 at Tue Jun 22 18:25:07 2021
Module time:
	user time   =     593.08 seconds =       9.88 minutes
	system time =       6.86 seconds =       0.11 minutes
	total time  =         82 seconds =       1.37 minutes
Total time:
	user time   =     601.25 seconds =      10.02 minutes
	system time =       7.15 seconds =       0.12 minutes
	total time  =         83 seconds =       1.38 minutes

       N-Body: Complex Energy (fragments = (2,), basis = (1, 2):   -76.42034674887022)

       N-Body: Computing complex (3/4) with fragments (1,) in the basis of fragments (1, 2).


*** tstart() called on cpu-spot-dy-c5n2xlarge-1
*** at Tue Jun 22 18:25:07 2021

   => Loading Basis Set <=

    Name: AUG-CC-PVDZ
    Role: ORBITAL
    Keyword: BASIS
    atoms 1             entry N          line   214 file /fsx/users/francis/anaconda3/envs/poltype-dev/share/psi4/basis/aug-cc-pvdz.gbs 
    atoms 2-3, 6-12, 14 entry C          line   178 file /fsx/users/francis/anaconda3/envs/poltype-dev/share/psi4/basis/aug-cc-pvdz.gbs 
    atoms 4-5           entry F          line   286 file /fsx/users/francis/anaconda3/envs/poltype-dev/share/psi4/basis/aug-cc-pvdz.gbs 
    atoms 13            entry S          line   698 file /fsx/users/francis/anaconda3/envs/poltype-dev/share/psi4/basis/aug-cc-pvdz.gbs 
    atoms 15-16, 24     entry O          line   250 file /fsx/users/francis/anaconda3/envs/poltype-dev/share/psi4/basis/aug-cc-pvdz.gbs 
    atoms 17-23, 25-26  entry H          line    36 file /fsx/users/francis/anaconda3/envs/poltype-dev/share/psi4/basis/aug-cc-pvdz.gbs 


         ---------------------------------------------------------
                                   SCF
               by Justin Turney, Rob Parrish, Andy Simmonett
                          and Daniel G. A. Smith
                              RKS Reference
                        8 Threads,  15258 MiB Core
         ---------------------------------------------------------

  ==> Geometry <==

    Molecular point group: c1
    Full point group: C1

    Geometry (in Angstrom), charge = 0, multiplicity = 1:

       Center              X                  Y                   Z               Mass       
    ------------   -----------------  -----------------  -----------------  -----------------
         N           -1.148157554299    -1.573158537945     0.198144166897    14.003074004430
         C           -2.437163554299    -1.266499537945     0.546182166897    12.000000000000
         C           -2.803890554299     0.254133462055     0.545722166897    12.000000000000
         F           -3.823815554299     0.432794462055    -0.361519833103    18.998403162730
         F           -3.281793554299     0.565240462055     1.799394166897    18.998403162730
         C           -1.661821554299     1.270874462055     0.195758166897    12.000000000000
         C           -0.331791554299     0.718416462055    -0.151387833103    12.000000000000
         C            0.729791445701     1.586816462055    -0.491962833103    12.000000000000
         C            1.991506445701     1.082232462055    -0.830546833103    12.000000000000
         C            2.220577445701    -0.319602537945    -0.852444833103    12.000000000000
         C            1.163148445701    -1.186333537945    -0.500243833103    12.000000000000
         C           -0.102592554299    -0.685445537945    -0.149798833103    12.000000000000
         S            3.743668445701    -1.091382537945    -1.331455833103    31.972071174400
         C            5.046696445701    -0.158347537945    -0.485364833103    12.000000000000
         O           -3.228840554299    -2.153526537945     0.830344166897    15.994914619570
         O           -1.878276554299     2.479063462055     0.210529166897    15.994914619570
         H            2.776656445701     1.786729462055    -1.103036833103     1.007825032230
         H            0.540856445701     2.660750462055    -0.489365833103     1.007825032230
         H           -0.976042554299    -2.569243537945     0.208464166897     1.007825032230
         H            1.325033445701    -2.265100537945    -0.521360833103     1.007825032230
         H            5.325502445701     0.705057462055    -1.096927833103     1.007825032230
         H            4.688566445701     0.180540462055     0.491529166897     1.007825032230
         H            5.917161445701    -0.807035537945    -0.348663833103     1.007825032230
      Gh(O)           2.700965645701     0.962838862055     1.365403566897    15.994914619570
      Gh(H)           2.068700645701     0.293783862055     1.629335566897     1.007825032230
      Gh(H)           2.239291645701     1.799896862055     1.307729566897     1.007825032230

  Running in c1 symmetry.

  Rotational constants: A =      0.03116  B =      0.00754  C =      0.00671 [cm^-1]
  Rotational constants: A =    934.08707  B =    226.08501  C =    201.05983 [MHz]
  Nuclear repulsion = 1175.166531513877999

  Charge       = 0
  Multiplicity = 1
  Electrons    = 124
  Nalpha       = 62
  Nbeta        = 62

  ==> Algorithm <==

  SCF Algorithm Type is DF.
  DIIS enabled.
  MOM disabled.
  Fractional occupation disabled.
  Guess Type is SAD.
  Energy threshold   = 1.00e-06
  Density threshold  = 1.00e-06
  Integral threshold = 0.00e+00

  ==> Primary Basis <==

  Basis Set: AUG-CC-PVDZ
    Blend: AUG-CC-PVDZ
    Number of shells: 200
    Number of basis function: 476
    Number of Cartesian functions: 510
    Spherical Harmonics?: true
    Max angular momentum: 2

  ==> DFT Potential <==

   => Composite Functional: WB97X-D <= 

    wB97X-D Hyb-GGA Exchange-Correlation Functional

    J.-D. Chai and M. Head-Gordon, Phys. Chem. Chem. Phys. 10, 6615 (2008)

    Deriv               =              1
    GGA                 =           TRUE
    Meta                =          FALSE

    Exchange Hybrid     =           TRUE
    MP2 Hybrid          =          FALSE

   => Exchange-Correlation Functionals <=

    1.0000   wB97D range-separated functional

   => Exact (HF) Exchange <=

    0.7780            HF,LR [omega = 0.2000]
    0.2220               HF 

   => Molecular Quadrature <=

    Radial Scheme          =       TREUTLER
    Pruning Scheme         =           FLAT
    Nuclear Scheme         =       TREUTLER

    BS radius alpha        =              1
    Pruning alpha          =              1
    Radial Points          =             75
    Spherical Points       =            302
    Total Points           =         588900
    Total Blocks           =           4385
    Max Points             =            256
    Max Functions          =            425

   => WB97X-D: Empirical Dispersion <=

    Chai and Head-Gordon Dispersion Correction
    Chai, J.-D.; Head-Gordon, M. (2010), J. Chem. Phys., 132: 6615-6620

        s6 =       1.000000

   => Loading Basis Set <=

    Name: (AUG-CC-PVDZ AUX)
    Role: JKFIT
    Keyword: DF_BASIS_SCF
    atoms 1             entry N          line   212 file /fsx/users/francis/anaconda3/envs/poltype-dev/share/psi4/basis/aug-cc-pvdz-jkfit.gbs 
    atoms 2-3, 6-12, 14 entry C          line   154 file /fsx/users/francis/anaconda3/envs/poltype-dev/share/psi4/basis/aug-cc-pvdz-jkfit.gbs 
    atoms 4-5           entry F          line   328 file /fsx/users/francis/anaconda3/envs/poltype-dev/share/psi4/basis/aug-cc-pvdz-jkfit.gbs 
    atoms 13            entry S          line   690 file /fsx/users/francis/anaconda3/envs/poltype-dev/share/psi4/basis/aug-cc-pvdz-jkfit.gbs 
    atoms 15-16, 24     entry O          line   270 file /fsx/users/francis/anaconda3/envs/poltype-dev/share/psi4/basis/aug-cc-pvdz-jkfit.gbs 
    atoms 17-23, 25-26  entry H          line    70 file /fsx/users/francis/anaconda3/envs/poltype-dev/share/psi4/basis/aug-cc-pvdz-jkfit.gbs 

  ==> Pre-Iterations <==

   -------------------------------------------------------
    Irrep   Nso     Nmo     Nalpha   Nbeta   Ndocc  Nsocc
   -------------------------------------------------------
     A        476     476       0       0       0       0
   -------------------------------------------------------
    Total     476     476      62      62      62       0
   -------------------------------------------------------

  ==> Integral Setup <==

  ==> DiskDFJK: Density-Fitted J/K Matrices <==

    J tasked:                  Yes
    K tasked:                  Yes
    wK tasked:                 Yes
    Omega:               2.000E-01
    OpenMP threads:              8
    Integrals threads:           8
    Memory [MiB]:             5760
    Algorithm:                Core
    Integral Cache:           NONE
    Schwarz Cutoff:          1E-12
    Fitting Condition:       1E-10

   => Auxiliary Basis Set <=

  Basis Set: (AUG-CC-PVDZ AUX)
    Blend: AUG-CC-PVDZ-JKFIT
    Number of shells: 596
    Number of basis function: 1792
    Number of Cartesian functions: 2081
    Spherical Harmonics?: true
    Max angular momentum: 3

  Cached 100.0% of DFT collocation blocks in 5.550 [GiB].

  Minimum eigenvalue in the overlap matrix is 1.0783875387E-06.
  Using Symmetric Orthogonalization.

  SCF Guess: Superposition of Atomic Densities via on-the-fly atomic UHF.

  ==> Iterations <==

                           Total Energy        Delta E     RMS |[F,P]|

   @DF-RKS iter SAD: -1187.40668894831447   -1.18741e+03   0.00000e+00 
   @DF-RKS iter   1: -1187.64678402121331   -2.40095e-01   2.27705e-03 DIIS
   @DF-RKS iter   2: -1187.66163118981694   -1.48472e-02   2.45770e-03 DIIS
   @DF-RKS iter   3: -1188.17957203685637   -5.17941e-01   5.40893e-04 DIIS
   @DF-RKS iter   4: -1188.20494180161245   -2.53698e-02   1.71329e-04 DIIS
   @DF-RKS iter   5: -1188.20811506913333   -3.17327e-03   4.71822e-05 DIIS
   @DF-RKS iter   6: -1188.20848050592099   -3.65437e-04   1.58327e-05 DIIS
   @DF-RKS iter   7: -1188.20853616714226   -5.56612e-05   6.33572e-06 DIIS
   @DF-RKS iter   8: -1188.20855209102433   -1.59239e-05   2.71146e-06 DIIS
   @DF-RKS iter   9: -1188.20855578705573   -3.69603e-06   1.41047e-06 DIIS
   @DF-RKS iter  10: -1188.20855618809628   -4.01041e-07   4.93306e-07 DIIS
  Energy and wave function converged.


  ==> Post-Iterations <==

    Orbital Energies [Eh]
    ---------------------

    Doubly Occupied:                                                      

       1A    -89.078326     2A    -24.871939     3A    -24.870895  
       4A    -19.298050     5A    -19.285112     6A    -14.534488  
       7A    -10.506176     8A    -10.452702     9A    -10.431263  
      10A    -10.405843    11A    -10.383111    12A    -10.350782  
      13A    -10.350479    14A    -10.350304    15A    -10.347467  
      16A    -10.342005    17A     -8.095664    18A     -6.045463  
      19A     -6.041117    20A     -6.034811    21A     -1.382649  
      22A     -1.326773    23A     -1.188754    24A     -1.176141  
      25A     -1.091755    26A     -0.998987    27A     -0.938159  
      28A     -0.902596    29A     -0.885927    30A     -0.867060  
      31A     -0.794364    32A     -0.763459    33A     -0.749680  
      34A     -0.741615    35A     -0.692973    36A     -0.677725  
      37A     -0.666724    38A     -0.642682    39A     -0.626657  
      40A     -0.588425    41A     -0.579693    42A     -0.565178  
      43A     -0.562322    44A     -0.554759    45A     -0.552957  
      46A     -0.550834    47A     -0.541590    48A     -0.535787  
      49A     -0.523954    50A     -0.516279    51A     -0.507514  
      52A     -0.497671    53A     -0.493522    54A     -0.479527  
      55A     -0.473099    56A     -0.440091    57A     -0.423072  
      58A     -0.394959    59A     -0.383684    60A     -0.367769  
      61A     -0.340587    62A     -0.322647  

    Virtual:                                                              

      63A     -0.051574    64A      0.008870    65A      0.023026  
      66A      0.031100    67A      0.037722    68A      0.041995  
      69A      0.047130    70A      0.056464    71A      0.061432  
      72A      0.063714    73A      0.065280    74A      0.071067  
      75A      0.081598    76A      0.082484    77A      0.086641  
      78A      0.092765    79A      0.099434    80A      0.110897  
      81A      0.111958    82A      0.114909    83A      0.116564  
      84A      0.120230    85A      0.122677    86A      0.127054  
      87A      0.129416    88A      0.135358    89A      0.139720  
      90A      0.145650    91A      0.147071    92A      0.151682  
      93A      0.154707    94A      0.156870    95A      0.160125  
      96A      0.162642    97A      0.169599    98A      0.171987  
      99A      0.176013   100A      0.179992   101A      0.181034  
     102A      0.187348   103A      0.190650   104A      0.194857  
     105A      0.199461   106A      0.199515   107A      0.204018  
     108A      0.212225   109A      0.213624   110A      0.215491  
     111A      0.222791   112A      0.227731   113A      0.231140  
     114A      0.233580   115A      0.237452   116A      0.243115  
     117A      0.249051   118A      0.251174   119A      0.256654  
     120A      0.260186   121A      0.262010   122A      0.269218  
     123A      0.272700   124A      0.273775   125A      0.278771  
     126A      0.280590   127A      0.284929   128A      0.289370  
     129A      0.291706   130A      0.294903   131A      0.300825  
     132A      0.305712   133A      0.306235   134A      0.311429  
     135A      0.319559   136A      0.321453   137A      0.327104  
     138A      0.328995   139A      0.330984   140A      0.335385  
     141A      0.341368   142A      0.343156   143A      0.345147  
     144A      0.351448   145A      0.353180   146A      0.356750  
     147A      0.362873   148A      0.365588   149A      0.371568  
     150A      0.377315   151A      0.379999   152A      0.380875  
     153A      0.384631   154A      0.389913   155A      0.392088  
     156A      0.399424   157A      0.400942   158A      0.404474  
     159A      0.412276   160A      0.414814   161A      0.422972  
     162A      0.432969   163A      0.436205   164A      0.440035  
     165A      0.444434   166A      0.450832   167A      0.455339  
     168A      0.457158   169A      0.460373   170A      0.464428  
     171A      0.469432   172A      0.480143   173A      0.489783  
     174A      0.490702   175A      0.499135   176A      0.501485  
     177A      0.506283   178A      0.509881   179A      0.522250  
     180A      0.523468   181A      0.526950   182A      0.532290  
     183A      0.540611   184A      0.541638   185A      0.548888  
     186A      0.553489   187A      0.559804   188A      0.573746  
     189A      0.575377   190A      0.583868   191A      0.589668  
     192A      0.591799   193A      0.599933   194A      0.608591  
     195A      0.611991   196A      0.617938   197A      0.620587  
     198A      0.626143   199A      0.628271   200A      0.633458  
     201A      0.635174   202A      0.642523   203A      0.650979  
     204A      0.653831   205A      0.657601   206A      0.660980  
     207A      0.667132   208A      0.667797   209A      0.671004  
     210A      0.676057   211A      0.680248   212A      0.686643  
     213A      0.692411   214A      0.695942   215A      0.698602  
     216A      0.704239   217A      0.715667   218A      0.724722  
     219A      0.728416   220A      0.729621   221A      0.737251  
     222A      0.739248   223A      0.745254   224A      0.759213  
     225A      0.764239   226A      0.767330   227A      0.779530  
     228A      0.782057   229A      0.783241   230A      0.792185  
     231A      0.794751   232A      0.809923   233A      0.817110  
     234A      0.820689   235A      0.821539   236A      0.829350  
     237A      0.834757   238A      0.840946   239A      0.849616  
     240A      0.862563   241A      0.867503   242A      0.876649  
     243A      0.885460   244A      0.891729   245A      0.898155  
     246A      0.900640   247A      0.909286   248A      0.914272  
     249A      0.932857   250A      0.937755   251A      0.940510  
     252A      0.944213   253A      0.958370   254A      0.967698  
     255A      0.978812   256A      0.988916   257A      0.992152  
     258A      1.001351   259A      1.006356   260A      1.017415  
     261A      1.028418   262A      1.041056   263A      1.049892  
     264A      1.061187   265A      1.075714   266A      1.084365  
     267A      1.091072   268A      1.096771   269A      1.102965  
     270A      1.108077   271A      1.116491   272A      1.123824  
     273A      1.133660   274A      1.138307   275A      1.150579  
     276A      1.160846   277A      1.163793   278A      1.178744  
     279A      1.192987   280A      1.197573   281A      1.209693  
     282A      1.214052   283A      1.230644   284A      1.237029  
     285A      1.253522   286A      1.260377   287A      1.269184  
     288A      1.276867   289A      1.280290   290A      1.291340  
     291A      1.295452   292A      1.309384   293A      1.314822  
     294A      1.320647   295A      1.325896   296A      1.332679  
     297A      1.346736   298A      1.358901   299A      1.363693  
     300A      1.377256   301A      1.380208   302A      1.391619  
     303A      1.400418   304A      1.406837   305A      1.421858  
     306A      1.427812   307A      1.439233   308A      1.450477  
     309A      1.457701   310A      1.468154   311A      1.475516  
     312A      1.489690   313A      1.498315   314A      1.514712  
     315A      1.521448   316A      1.531780   317A      1.537122  
     318A      1.554812   319A      1.557160   320A      1.561409  
     321A      1.567633   322A      1.582271   323A      1.586663  
     324A      1.595274   325A      1.601250   326A      1.604642  
     327A      1.610577   328A      1.623202   329A      1.629835  
     330A      1.641894   331A      1.648077   332A      1.651047  
     333A      1.661099   334A      1.664903   335A      1.671996  
     336A      1.683301   337A      1.685307   338A      1.691621  
     339A      1.707316   340A      1.729603   341A      1.737200  
     342A      1.739664   343A      1.750703   344A      1.760703  
     345A      1.767313   346A      1.771288   347A      1.789264  
     348A      1.801819   349A      1.810523   350A      1.819176  
     351A      1.838726   352A      1.841412   353A      1.846976  
     354A      1.857990   355A      1.865990   356A      1.883064  
     357A      1.890776   358A      1.898594   359A      1.904311  
     360A      1.919661   361A      1.927026   362A      1.933641  
     363A      1.944988   364A      1.953486   365A      1.960564  
     366A      1.977483   367A      1.982315   368A      1.993577  
     369A      1.995179   370A      2.012371   371A      2.018727  
     372A      2.036532   373A      2.038813   374A      2.048058  
     375A      2.065528   376A      2.076638   377A      2.088870  
     378A      2.093394   379A      2.099715   380A      2.111648  
     381A      2.126857   382A      2.135038   383A      2.145948  
     384A      2.156787   385A      2.159906   386A      2.166744  
     387A      2.188014   388A      2.205548   389A      2.211587  
     390A      2.231680   391A      2.236828   392A      2.240702  
     393A      2.261509   394A      2.296826   395A      2.300921  
     396A      2.315326   397A      2.330788   398A      2.336823  
     399A      2.351428   400A      2.363250   401A      2.369553  
     402A      2.391535   403A      2.399103   404A      2.413624  
     405A      2.440094   406A      2.467512   407A      2.488133  
     408A      2.492094   409A      2.527432   410A      2.537634  
     411A      2.546517   412A      2.561424   413A      2.599430  
     414A      2.607640   415A      2.626717   416A      2.661585  
     417A      2.673306   418A      2.680202   419A      2.688014  
     420A      2.700679   421A      2.727062   422A      2.740889  
     423A      2.753703   424A      2.766592   425A      2.799726  
     426A      2.846159   427A      2.883933   428A      2.939070  
     429A      2.960589   430A      2.997701   431A      3.044664  
     432A      3.084547   433A      3.124078   434A      3.162679  
     435A      3.258930   436A      3.367537   437A      3.411092  
     438A      3.427231   439A      3.444264   440A      3.456433  
     441A      3.481073   442A      3.498068   443A      3.509218  
     444A      3.530172   445A      3.578193   446A      3.579943  
     447A      3.617092   448A      3.659181   449A      3.710873  
     450A      3.728766   451A      3.818339   452A      3.862840  
     453A      3.886556   454A      4.088217   455A      4.245410  
     456A      4.355254   457A      4.592366   458A      4.611712  
     459A      4.649210   460A      4.684185   461A      4.722994  
     462A      4.744234   463A      4.746257   464A      4.807111  
     465A      4.844154   466A      4.850007   467A      4.899696  
     468A      5.066514   469A      5.118578   470A      5.127120  
     471A      5.351795   472A      5.659002   473A      6.173659  
     474A      6.668162   475A      7.111841   476A     33.572102  

    Final Occupation by Irrep:
              A 
    DOCC [    62 ]

  @DF-RKS Final Energy: -1188.20855618809628

   => Energetics <=

    Nuclear Repulsion Energy =           1175.1665315138779988
    One-Electron Energy =               -3964.8368028793079247
    Two-Electron Energy =                1691.0168010339482407
    DFT Exchange-Correlation Energy =     -89.5416254603776309
    Empirical Dispersion Energy =          -0.0134603962369127
    VV10 Nonlocal Energy =                  0.0000000000000000
    Total Energy =                      -1188.2085561880962814

Computation Completed


Properties will be evaluated at  -0.000000,   0.000000,  -0.000000 [a0]

Properties computed using the SCF density matrix

  Nuclear Dipole Moment: [e a0]
     X:   -19.7690      Y:   -17.7983      Z:   -27.4999

  Electronic Dipole Moment: [e a0]
     X:    22.7187      Y:    17.4513      Z:    27.1539

  Dipole Moment: [e a0]
     X:     2.9496      Y:    -0.3470      Z:    -0.3460     Total:     2.9901

  Dipole Moment: [D]
     X:     7.4973      Y:    -0.8820      Z:    -0.8794     Total:     7.6000


*** tstop() called on cpu-spot-dy-c5n2xlarge-1 at Tue Jun 22 18:27:14 2021
Module time:
	user time   =     942.90 seconds =      15.71 minutes
	system time =       8.96 seconds =       0.15 minutes
	total time  =        127 seconds =       2.12 minutes
Total time:
	user time   =    1544.19 seconds =      25.74 minutes
	system time =      16.11 seconds =       0.27 minutes
	total time  =        210 seconds =       3.50 minutes

       N-Body: Complex Energy (fragments = (1,), basis = (1, 2): -1188.20855618809628)

       N-Body: Computing complex (4/4) with fragments (1,) in the basis of fragments (1,).


*** tstart() called on cpu-spot-dy-c5n2xlarge-1
*** at Tue Jun 22 18:27:14 2021

   => Loading Basis Set <=

    Name: AUG-CC-PVDZ
    Role: ORBITAL
    Keyword: BASIS
    atoms 1             entry N          line   214 file /fsx/users/francis/anaconda3/envs/poltype-dev/share/psi4/basis/aug-cc-pvdz.gbs 
    atoms 2-3, 6-12, 14 entry C          line   178 file /fsx/users/francis/anaconda3/envs/poltype-dev/share/psi4/basis/aug-cc-pvdz.gbs 
    atoms 4-5           entry F          line   286 file /fsx/users/francis/anaconda3/envs/poltype-dev/share/psi4/basis/aug-cc-pvdz.gbs 
    atoms 13            entry S          line   698 file /fsx/users/francis/anaconda3/envs/poltype-dev/share/psi4/basis/aug-cc-pvdz.gbs 
    atoms 15-16         entry O          line   250 file /fsx/users/francis/anaconda3/envs/poltype-dev/share/psi4/basis/aug-cc-pvdz.gbs 
    atoms 17-23         entry H          line    36 file /fsx/users/francis/anaconda3/envs/poltype-dev/share/psi4/basis/aug-cc-pvdz.gbs 


         ---------------------------------------------------------
                                   SCF
               by Justin Turney, Rob Parrish, Andy Simmonett
                          and Daniel G. A. Smith
                              RKS Reference
                        8 Threads,  15258 MiB Core
         ---------------------------------------------------------

  ==> Geometry <==

    Molecular point group: c1
    Full point group: C1

    Geometry (in Angstrom), charge = 0, multiplicity = 1:

       Center              X                  Y                   Z               Mass       
    ------------   -----------------  -----------------  -----------------  -----------------
         N           -1.148157554299    -1.573158537945     0.198144166897    14.003074004430
         C           -2.437163554299    -1.266499537945     0.546182166897    12.000000000000
         C           -2.803890554299     0.254133462055     0.545722166897    12.000000000000
         F           -3.823815554299     0.432794462055    -0.361519833103    18.998403162730
         F           -3.281793554299     0.565240462055     1.799394166897    18.998403162730
         C           -1.661821554299     1.270874462055     0.195758166897    12.000000000000
         C           -0.331791554299     0.718416462055    -0.151387833103    12.000000000000
         C            0.729791445701     1.586816462055    -0.491962833103    12.000000000000
         C            1.991506445701     1.082232462055    -0.830546833103    12.000000000000
         C            2.220577445701    -0.319602537945    -0.852444833103    12.000000000000
         C            1.163148445701    -1.186333537945    -0.500243833103    12.000000000000
         C           -0.102592554299    -0.685445537945    -0.149798833103    12.000000000000
         S            3.743668445701    -1.091382537945    -1.331455833103    31.972071174400
         C            5.046696445701    -0.158347537945    -0.485364833103    12.000000000000
         O           -3.228840554299    -2.153526537945     0.830344166897    15.994914619570
         O           -1.878276554299     2.479063462055     0.210529166897    15.994914619570
         H            2.776656445701     1.786729462055    -1.103036833103     1.007825032230
         H            0.540856445701     2.660750462055    -0.489365833103     1.007825032230
         H           -0.976042554299    -2.569243537945     0.208464166897     1.007825032230
         H            1.325033445701    -2.265100537945    -0.521360833103     1.007825032230
         H            5.325502445701     0.705057462055    -1.096927833103     1.007825032230
         H            4.688566445701     0.180540462055     0.491529166897     1.007825032230
         H            5.917161445701    -0.807035537945    -0.348663833103     1.007825032230

  Running in c1 symmetry.

  Rotational constants: A =      0.03724  B =      0.00809  C =      0.00703 [cm^-1]
  Rotational constants: A =   1116.43780  B =    242.51102  C =    210.88670 [MHz]
  Nuclear repulsion = 1175.166531513877999

  Charge       = 0
  Multiplicity = 1
  Electrons    = 124
  Nalpha       = 62
  Nbeta        = 62

  ==> Algorithm <==

  SCF Algorithm Type is DF.
  DIIS enabled.
  MOM disabled.
  Fractional occupation disabled.
  Guess Type is SAD.
  Energy threshold   = 1.00e-06
  Density threshold  = 1.00e-06
  Integral threshold = 0.00e+00

  ==> Primary Basis <==

  Basis Set: AUG-CC-PVDZ
    Blend: AUG-CC-PVDZ
    Number of shells: 181
    Number of basis function: 435
    Number of Cartesian functions: 467
    Spherical Harmonics?: true
    Max angular momentum: 2

  ==> DFT Potential <==

   => Composite Functional: WB97X-D <= 

    wB97X-D Hyb-GGA Exchange-Correlation Functional

    J.-D. Chai and M. Head-Gordon, Phys. Chem. Chem. Phys. 10, 6615 (2008)

    Deriv               =              1
    GGA                 =           TRUE
    Meta                =          FALSE

    Exchange Hybrid     =           TRUE
    MP2 Hybrid          =          FALSE

   => Exchange-Correlation Functionals <=

    1.0000   wB97D range-separated functional

   => Exact (HF) Exchange <=

    0.7780            HF,LR [omega = 0.2000]
    0.2220               HF 

   => Molecular Quadrature <=

    Radial Scheme          =       TREUTLER
    Pruning Scheme         =           FLAT
    Nuclear Scheme         =       TREUTLER

    BS radius alpha        =              1
    Pruning alpha          =              1
    Radial Points          =             75
    Spherical Points       =            302
    Total Points           =         520950
    Total Blocks           =           3868
    Max Points             =            256
    Max Functions          =            394

   => WB97X-D: Empirical Dispersion <=

    Chai and Head-Gordon Dispersion Correction
    Chai, J.-D.; Head-Gordon, M. (2010), J. Chem. Phys., 132: 6615-6620

        s6 =       1.000000

   => Loading Basis Set <=

    Name: (AUG-CC-PVDZ AUX)
    Role: JKFIT
    Keyword: DF_BASIS_SCF
    atoms 1             entry N          line   212 file /fsx/users/francis/anaconda3/envs/poltype-dev/share/psi4/basis/aug-cc-pvdz-jkfit.gbs 
    atoms 2-3, 6-12, 14 entry C          line   154 file /fsx/users/francis/anaconda3/envs/poltype-dev/share/psi4/basis/aug-cc-pvdz-jkfit.gbs 
    atoms 4-5           entry F          line   328 file /fsx/users/francis/anaconda3/envs/poltype-dev/share/psi4/basis/aug-cc-pvdz-jkfit.gbs 
    atoms 13            entry S          line   690 file /fsx/users/francis/anaconda3/envs/poltype-dev/share/psi4/basis/aug-cc-pvdz-jkfit.gbs 
    atoms 15-16         entry O          line   270 file /fsx/users/francis/anaconda3/envs/poltype-dev/share/psi4/basis/aug-cc-pvdz-jkfit.gbs 
    atoms 17-23         entry H          line    70 file /fsx/users/francis/anaconda3/envs/poltype-dev/share/psi4/basis/aug-cc-pvdz-jkfit.gbs 

  ==> Pre-Iterations <==

   -------------------------------------------------------
    Irrep   Nso     Nmo     Nalpha   Nbeta   Ndocc  Nsocc
   -------------------------------------------------------
     A        435     435       0       0       0       0
   -------------------------------------------------------
    Total     435     435      62      62      62       0
   -------------------------------------------------------

  ==> Integral Setup <==

  ==> DiskDFJK: Density-Fitted J/K Matrices <==

    J tasked:                  Yes
    K tasked:                  Yes
    wK tasked:                 Yes
    Omega:               2.000E-01
    OpenMP threads:              8
    Integrals threads:           8
    Memory [MiB]:             6835
    Algorithm:                Core
    Integral Cache:           NONE
    Schwarz Cutoff:          1E-12
    Fitting Condition:       1E-10

   => Auxiliary Basis Set <=

  Basis Set: (AUG-CC-PVDZ AUX)
    Blend: AUG-CC-PVDZ-JKFIT
    Number of shells: 544
    Number of basis function: 1642
    Number of Cartesian functions: 1910
    Spherical Harmonics?: true
    Max angular momentum: 3

  Cached 100.0% of DFT collocation blocks in 4.501 [GiB].

  Minimum eigenvalue in the overlap matrix is 1.2248119395E-06.
  Using Symmetric Orthogonalization.

  SCF Guess: Superposition of Atomic Densities via on-the-fly atomic UHF.

  ==> Iterations <==

                           Total Energy        Delta E     RMS |[F,P]|

   @DF-RKS iter SAD: -1187.40675951899516   -1.18741e+03   0.00000e+00 
   @DF-RKS iter   1: -1187.64597430757499   -2.39215e-01   2.48794e-03 DIIS
   @DF-RKS iter   2: -1187.66088773165529   -1.49134e-02   2.68872e-03 DIIS
   @DF-RKS iter   3: -1188.17886058261024   -5.17973e-01   5.90662e-04 DIIS
   @DF-RKS iter   4: -1188.20416164975745   -2.53011e-02   1.86860e-04 DIIS
   @DF-RKS iter   5: -1188.20731595811162   -3.15431e-03   5.15809e-05 DIIS
   @DF-RKS iter   6: -1188.20768080717653   -3.64849e-04   1.73031e-05 DIIS
   @DF-RKS iter   7: -1188.20773633985141   -5.55327e-05   6.92154e-06 DIIS
   @DF-RKS iter   8: -1188.20775226745195   -1.59276e-05   2.96477e-06 DIIS
   @DF-RKS iter   9: -1188.20775595564101   -3.68819e-06   1.54375e-06 DIIS
   @DF-RKS iter  10: -1188.20775635512359   -3.99483e-07   5.37400e-07 DIIS
  Energy and wave function converged.


  ==> Post-Iterations <==

    Orbital Energies [Eh]
    ---------------------

    Doubly Occupied:                                                      

       1A    -89.078320     2A    -24.871989     3A    -24.870938  
       4A    -19.298166     5A    -19.285185     6A    -14.534615  
       7A    -10.506264     8A    -10.452791     9A    -10.431414  
      10A    -10.405991    11A    -10.383209    12A    -10.350929  
      13A    -10.350564    14A    -10.350430    15A    -10.347582  
      16A    -10.342024    17A     -8.095743    18A     -6.045540  
      19A     -6.041194    20A     -6.034878    21A     -1.382706  
      22A     -1.326828    23A     -1.188832    24A     -1.176254  
      25A     -1.091876    26A     -0.999245    27A     -0.938335  
      28A     -0.902731    29A     -0.886147    30A     -0.867195  
      31A     -0.794505    32A     -0.763626    33A     -0.749816  
      34A     -0.741758    35A     -0.693125    36A     -0.677859  
      37A     -0.666782    38A     -0.642824    39A     -0.626812  
      40A     -0.588598    41A     -0.579864    42A     -0.565256  
      43A     -0.562421    44A     -0.554977    45A     -0.553043  
      46A     -0.550917    47A     -0.541637    48A     -0.535869  
      49A     -0.524070    50A     -0.516338    51A     -0.507599  
      52A     -0.497809    53A     -0.493654    54A     -0.479661  
      55A     -0.473273    56A     -0.440209    57A     -0.423198  
      58A     -0.395048    59A     -0.383836    60A     -0.367870  
      61A     -0.340721    62A     -0.322762  

    Virtual:                                                              

      63A     -0.051699    64A      0.008732    65A      0.023422  
      66A      0.031283    67A      0.038252    68A      0.043575  
      69A      0.049387    70A      0.056806    71A      0.062074  
      72A      0.064361    73A      0.073640    74A      0.080968  
      75A      0.082357    76A      0.090769    77A      0.093436  
      78A      0.100153    79A      0.104499    80A      0.112802  
      81A      0.114919    82A      0.118277    83A      0.120452  
      84A      0.124142    85A      0.125428    86A      0.135041  
      87A      0.139992    88A      0.141403    89A      0.147804  
      90A      0.152419    91A      0.153633    92A      0.159159  
      93A      0.160432    94A      0.162956    95A      0.167204  
      96A      0.168632    97A      0.173002    98A      0.175135  
      99A      0.181936   100A      0.186926   101A      0.191847  
     102A      0.196525   103A      0.197898   104A      0.200427  
     105A      0.206243   106A      0.213198   107A      0.213791  
     108A      0.218423   109A      0.226732   110A      0.232425  
     111A      0.234490   112A      0.236262   113A      0.241134  
     114A      0.246772   115A      0.250947   116A      0.255174  
     117A      0.257714   118A      0.261781   119A      0.265881  
     120A      0.274751   121A      0.275964   122A      0.279453  
     123A      0.284141   124A      0.287355   125A      0.289513  
     126A      0.295890   127A      0.302299   128A      0.306828  
     129A      0.309826   130A      0.312188   131A      0.316446  
     132A      0.320724   133A      0.326258   134A      0.329281  
     135A      0.332138   136A      0.334545   137A      0.342817  
     138A      0.345410   139A      0.348656   140A      0.354167  
     141A      0.356111   142A      0.362952   143A      0.368691  
     144A      0.371346   145A      0.375513   146A      0.376786  
     147A      0.379362   148A      0.389915   149A      0.392075  
     150A      0.395498   151A      0.398773   152A      0.403774  
     153A      0.406397   154A      0.409757   155A      0.416782  
     156A      0.427364   157A      0.431357   158A      0.437195  
     159A      0.440198   160A      0.446734   161A      0.452703  
     162A      0.457695   163A      0.468673   164A      0.469492  
     165A      0.478258   166A      0.485384   167A      0.491534  
     168A      0.493745   169A      0.503220   170A      0.509418  
     171A      0.511124   172A      0.514283   173A      0.522216  
     174A      0.528568   175A      0.536828   176A      0.545027  
     177A      0.547545   178A      0.550976   179A      0.561561  
     180A      0.568173   181A      0.576365   182A      0.581222  
     183A      0.583251   184A      0.589787   185A      0.591464  
     186A      0.594436   187A      0.604259   188A      0.618498  
     189A      0.621422   190A      0.630463   191A      0.631438  
     192A      0.635245   193A      0.646137   194A      0.647768  
     195A      0.649593   196A      0.651255   197A      0.660319  
     198A      0.663376   199A      0.667587   200A      0.672555  
     201A      0.678548   202A      0.687177   203A      0.691772  
     204A      0.697428   205A      0.701164   206A      0.709230  
     207A      0.719205   208A      0.728651   209A      0.732402  
     210A      0.738010   211A      0.741655   212A      0.745442  
     213A      0.758246   214A      0.762719   215A      0.771485  
     216A      0.773015   217A      0.779416   218A      0.783633  
     219A      0.789506   220A      0.792323   221A      0.802889  
     222A      0.809109   223A      0.814835   224A      0.820871  
     225A      0.827980   226A      0.832766   227A      0.834542  
     228A      0.843374   229A      0.848343   230A      0.874073  
     231A      0.875420   232A      0.885253   233A      0.889149  
     234A      0.896707   235A      0.904878   236A      0.908996  
     237A      0.926698   238A      0.938585   239A      0.945045  
     240A      0.948626   241A      0.954600   242A      0.965084  
     243A      0.981875   244A      0.987149   245A      1.000481  
     246A      1.005345   247A      1.007254   248A      1.028090  
     249A      1.037771   250A      1.046421   251A      1.061375  
     252A      1.072492   253A      1.084185   254A      1.098939  
     255A      1.101773   256A      1.106067   257A      1.112278  
     258A      1.121188   259A      1.128765   260A      1.145689  
     261A      1.148260   262A      1.157735   263A      1.172117  
     264A      1.182889   265A      1.203269   266A      1.209108  
     267A      1.215288   268A      1.222186   269A      1.240160  
     270A      1.257475   271A      1.263711   272A      1.265459  
     273A      1.270824   274A      1.287924   275A      1.293068  
     276A      1.304042   277A      1.307802   278A      1.315054  
     279A      1.322199   280A      1.346704   281A      1.364053  
     282A      1.365380   283A      1.372782   284A      1.389271  
     285A      1.403464   286A      1.408175   287A      1.411100  
     288A      1.427232   289A      1.442022   290A      1.442907  
     291A      1.456567   292A      1.465821   293A      1.468089  
     294A      1.480389   295A      1.504461   296A      1.506763  
     297A      1.517513   298A      1.536574   299A      1.550626  
     300A      1.551026   301A      1.558722   302A      1.564739  
     303A      1.568319   304A      1.585633   305A      1.593854  
     306A      1.594627   307A      1.603104   308A      1.617142  
     309A      1.618311   310A      1.625507   311A      1.630026  
     312A      1.647400   313A      1.659451   314A      1.662070  
     315A      1.670802   316A      1.675387   317A      1.682210  
     318A      1.690176   319A      1.697477   320A      1.715521  
     321A      1.724588   322A      1.733551   323A      1.739017  
     324A      1.742649   325A      1.757643   326A      1.774493  
     327A      1.779292   328A      1.794648   329A      1.806005  
     330A      1.827322   331A      1.837838   332A      1.843236  
     333A      1.854204   334A      1.865025   335A      1.867737  
     336A      1.878399   337A      1.891217   338A      1.900383  
     339A      1.910857   340A      1.920775   341A      1.929850  
     342A      1.939273   343A      1.947117   344A      1.952575  
     345A      1.969913   346A      1.973737   347A      1.986394  
     348A      1.993519   349A      2.011870   350A      2.015769  
     351A      2.027137   352A      2.040348   353A      2.057181  
     354A      2.058567   355A      2.074707   356A      2.085330  
     357A      2.093592   358A      2.097576   359A      2.116107  
     360A      2.132076   361A      2.137110   362A      2.140223  
     363A      2.156077   364A      2.175911   365A      2.184496  
     366A      2.203068   367A      2.222358   368A      2.229033  
     369A      2.231827   370A      2.249551   371A      2.288587  
     372A      2.293758   373A      2.301372   374A      2.330940  
     375A      2.331763   376A      2.352674   377A      2.357286  
     378A      2.371908   379A      2.394099   380A      2.415890  
     381A      2.432944   382A      2.458269   383A      2.479241  
     384A      2.521921   385A      2.526910   386A      2.539876  
     387A      2.558008   388A      2.599581   389A      2.611794  
     390A      2.663650   391A      2.670883   392A      2.675093  
     393A      2.692053   394A      2.704366   395A      2.721568  
     396A      2.744424   397A      2.749949   398A      2.788368  
     399A      2.864984   400A      2.948920   401A      2.982359  
     402A      3.036045   403A      3.043977   404A      3.104573  
     405A      3.137892   406A      3.175041   407A      3.355309  
     408A      3.385185   409A      3.402592   410A      3.411523  
     411A      3.454078   412A      3.460859   413A      3.477677  
     414A      3.504924   415A      3.527754   416A      3.537063  
     417A      3.565701   418A      3.616352   419A      3.689381  
     420A      3.703784   421A      3.812007   422A      3.849848  
     423A      3.872752   424A      4.112326   425A      4.463557  
     426A      4.610417   427A      4.647268   428A      4.682411  
     429A      4.719745   430A      4.742809   431A      4.744037  
     432A      4.798124   433A      4.840737   434A      4.846761  
     435A      4.899324  

    Final Occupation by Irrep:
              A 
    DOCC [    62 ]

  @DF-RKS Final Energy: -1188.20775635512359

   => Energetics <=

    Nuclear Repulsion Energy =           1175.1665315138779988
    One-Electron Energy =               -3964.8215658634471765
    Two-Electron Energy =                1691.0016994788809370
    DFT Exchange-Correlation Energy =     -89.5409610881984150
    Empirical Dispersion Energy =          -0.0134603962369127
    VV10 Nonlocal Energy =                  0.0000000000000000
    Total Energy =                      -1188.2077563551235926

Computation Completed


Properties will be evaluated at  -0.369703,  -0.136164,  -0.192844 [a0]

Properties computed using the SCF density matrix

  Nuclear Dipole Moment: [e a0]
     X:    26.0742      Y:    -0.9139      Z:    -3.5872

  Electronic Dipole Moment: [e a0]
     X:   -23.1260      Y:     0.5659      Z:     3.2401

  Dipole Moment: [e a0]
     X:     2.9481      Y:    -0.3480      Z:    -0.3471     Total:     2.9888

  Dipole Moment: [D]
     X:     7.4934      Y:    -0.8845      Z:    -0.8823     Total:     7.5969


*** tstop() called on cpu-spot-dy-c5n2xlarge-1 at Tue Jun 22 18:28:49 2021
Module time:
	user time   =     705.62 seconds =      11.76 minutes
	system time =       7.40 seconds =       0.12 minutes
	total time  =         95 seconds =       1.58 minutes
Total time:
	user time   =    2249.86 seconds =      37.50 minutes
	system time =      23.52 seconds =       0.39 minutes
	total time  =        305 seconds =       5.08 minutes

       N-Body: Complex Energy (fragments = (1,), basis = (1,): -1188.20775635512359)

   ==> N-Body: Now computing 2-body complexes <==


       N-Body: Computing complex (1/1) with fragments (1, 2) in the basis of fragments (1, 2).


*** tstart() called on cpu-spot-dy-c5n2xlarge-1
*** at Tue Jun 22 18:28:49 2021

   => Loading Basis Set <=

    Name: AUG-CC-PVDZ
    Role: ORBITAL
    Keyword: BASIS
    atoms 1             entry N          line   214 file /fsx/users/francis/anaconda3/envs/poltype-dev/share/psi4/basis/aug-cc-pvdz.gbs 
    atoms 2-3, 6-12, 14 entry C          line   178 file /fsx/users/francis/anaconda3/envs/poltype-dev/share/psi4/basis/aug-cc-pvdz.gbs 
    atoms 4-5           entry F          line   286 file /fsx/users/francis/anaconda3/envs/poltype-dev/share/psi4/basis/aug-cc-pvdz.gbs 
    atoms 13            entry S          line   698 file /fsx/users/francis/anaconda3/envs/poltype-dev/share/psi4/basis/aug-cc-pvdz.gbs 
    atoms 15-16, 24     entry O          line   250 file /fsx/users/francis/anaconda3/envs/poltype-dev/share/psi4/basis/aug-cc-pvdz.gbs 
    atoms 17-23, 25-26  entry H          line    36 file /fsx/users/francis/anaconda3/envs/poltype-dev/share/psi4/basis/aug-cc-pvdz.gbs 


         ---------------------------------------------------------
                                   SCF
               by Justin Turney, Rob Parrish, Andy Simmonett
                          and Daniel G. A. Smith
                              RKS Reference
                        8 Threads,  15258 MiB Core
         ---------------------------------------------------------

  ==> Geometry <==

    Molecular point group: c1
    Full point group: C1

    Geometry (in Angstrom), charge = 0, multiplicity = 1:

       Center              X                  Y                   Z               Mass       
    ------------   -----------------  -----------------  -----------------  -----------------
         N           -1.148157554299    -1.573158537945     0.198144166897    14.003074004430
         C           -2.437163554299    -1.266499537945     0.546182166897    12.000000000000
         C           -2.803890554299     0.254133462055     0.545722166897    12.000000000000
[...]
         H            5.325502445701     0.705057462055    -1.096927833103     1.007825032230
         H            4.688566445701     0.180540462055     0.491529166897     1.007825032230
         H            5.917161445701    -0.807035537945    -0.348663833103     1.007825032230
         O            2.700965645701     0.962838862055     1.365403566897    15.994914619570
         H            2.068700645701     0.293783862055     1.629335566897     1.007825032230
         H            2.239291645701     1.799896862055     1.307729566897     1.007825032230

  Running in c1 symmetry.

  Rotational constants: A =      0.03116  B =      0.00754  C =      0.00671 [cm^-1]
  Rotational constants: A =    934.08707  B =    226.08501  C =    201.05983 [MHz]
  Nuclear repulsion = 1350.797836342160963

  Charge       = 0
  Multiplicity = 1
  Electrons    = 134
  Nalpha       = 67
  Nbeta        = 67

  ==> Algorithm <==

  SCF Algorithm Type is DF.
  DIIS enabled.
  MOM disabled.
  Fractional occupation disabled.
  Guess Type is SAD.
  Energy threshold   = 1.00e-06
  Density threshold  = 1.00e-06
  Integral threshold = 0.00e+00

  ==> Primary Basis <==

  Basis Set: AUG-CC-PVDZ
    Blend: AUG-CC-PVDZ
    Number of shells: 200
    Number of basis function: 476
    Number of Cartesian functions: 510
    Spherical Harmonics?: true
    Max angular momentum: 2

  ==> DFT Potential <==

   => Composite Functional: WB97X-D <= 

    wB97X-D Hyb-GGA Exchange-Correlation Functional

    J.-D. Chai and M. Head-Gordon, Phys. Chem. Chem. Phys. 10, 6615 (2008)

    Deriv               =              1
    GGA                 =           TRUE
    Meta                =          FALSE

    Exchange Hybrid     =           TRUE
    MP2 Hybrid          =          FALSE

   => Exchange-Correlation Functionals <=

    1.0000   wB97D range-separated functional

   => Exact (HF) Exchange <=

    0.7780            HF,LR [omega = 0.2000]
    0.2220               HF 

   => Molecular Quadrature <=

    Radial Scheme          =       TREUTLER
    Pruning Scheme         =           FLAT
    Nuclear Scheme         =       TREUTLER

    BS radius alpha        =              1
    Pruning alpha          =              1
    Radial Points          =             75
    Spherical Points       =            302
    Total Points           =         588900
    Total Blocks           =           4385
    Max Points             =            256
    Max Functions          =            425

   => WB97X-D: Empirical Dispersion <=

    Chai and Head-Gordon Dispersion Correction
    Chai, J.-D.; Head-Gordon, M. (2010), J. Chem. Phys., 132: 6615-6620

        s6 =       1.000000

   => Loading Basis Set <=

    Name: (AUG-CC-PVDZ AUX)
    Role: JKFIT
    Keyword: DF_BASIS_SCF
    atoms 1             entry N          line   212 file /fsx/users/francis/anaconda3/envs/poltype-dev/share/psi4/basis/aug-cc-pvdz-jkfit.gbs 
    atoms 2-3, 6-12, 14 entry C          line   154 file /fsx/users/francis/anaconda3/envs/poltype-dev/share/psi4/basis/aug-cc-pvdz-jkfit.gbs 
    atoms 4-5           entry F          line   328 file /fsx/users/francis/anaconda3/envs/poltype-dev/share/psi4/basis/aug-cc-pvdz-jkfit.gbs 
    atoms 13            entry S          line   690 file /fsx/users/francis/anaconda3/envs/poltype-dev/share/psi4/basis/aug-cc-pvdz-jkfit.gbs 
    atoms 15-16, 24     entry O          line   270 file /fsx/users/francis/anaconda3/envs/poltype-dev/share/psi4/basis/aug-cc-pvdz-jkfit.gbs 
    atoms 17-23, 25-26  entry H          line    70 file /fsx/users/francis/anaconda3/envs/poltype-dev/share/psi4/basis/aug-cc-pvdz-jkfit.gbs 

  ==> Pre-Iterations <==

   -------------------------------------------------------
    Irrep   Nso     Nmo     Nalpha   Nbeta   Ndocc  Nsocc
   -------------------------------------------------------
     A        476     476       0       0       0       0
   -------------------------------------------------------
    Total     476     476      67      67      67       0
   -------------------------------------------------------

  ==> Integral Setup <==

  ==> DiskDFJK: Density-Fitted J/K Matrices <==

    J tasked:                  Yes
    K tasked:                  Yes
    wK tasked:                 Yes
    Omega:               2.000E-01
    OpenMP threads:              8
    Integrals threads:           8
    Memory [MiB]:             5760
    Algorithm:                Core
    Integral Cache:           NONE
    Schwarz Cutoff:          1E-12
    Fitting Condition:       1E-10

   => Auxiliary Basis Set <=

  Basis Set: (AUG-CC-PVDZ AUX)
    Blend: AUG-CC-PVDZ-JKFIT
    Number of shells: 596
    Number of basis function: 1792
    Number of Cartesian functions: 2081
    Spherical Harmonics?: true
    Max angular momentum: 3

  Cached 100.0% of DFT collocation blocks in 5.550 [GiB].

  Minimum eigenvalue in the overlap matrix is 1.0783875387E-06.
  Using Symmetric Orthogonalization.

  SCF Guess: Superposition of Atomic Densities via on-the-fly atomic UHF.

  ==> Iterations <==

                           Total Energy        Delta E     RMS |[F,P]|

   @DF-RKS iter SAD: -1263.72903794255853   -1.26373e+03   0.00000e+00 
   @DF-RKS iter   1: -1263.91971803883166   -1.90680e-01   2.58179e-03 DIIS
   @DF-RKS iter   2: -1263.88955296211680    3.01651e-02   2.84698e-03 DIIS
   @DF-RKS iter   3: -1264.57518766843305   -6.85635e-01   5.46037e-04 DIIS
   @DF-RKS iter   4: -1264.60083224393929   -2.56446e-02   2.01399e-04 DIIS
   @DF-RKS iter   5: -1264.60496955935014   -4.13732e-03   5.50996e-05 DIIS
   @DF-RKS iter   6: -1264.60540688225456   -4.37323e-04   1.65365e-05 DIIS
   @DF-RKS iter   7: -1264.60547298683355   -6.61046e-05   6.20010e-06 DIIS
   @DF-RKS iter   8: -1264.60549124121394   -1.82544e-05   3.12795e-06 DIIS
   @DF-RKS iter   9: -1264.60549554547151   -4.30426e-06   1.46624e-06 DIIS
   @DF-RKS iter  10: -1264.60549603224058   -4.86769e-07   6.49648e-07 DIIS
  Energy and wave function converged.


  ==> Post-Iterations <==

    Orbital Energies [Eh]
    ---------------------

    Doubly Occupied:                                                      

       1A    -89.074331     2A    -24.872894     3A    -24.872451  
       4A    -19.298952     5A    -19.292657     6A    -19.285735  
       7A    -14.534967     8A    -10.507258     9A    -10.453362  
      10A    -10.432261    11A    -10.405249    12A    -10.379585  
      13A    -10.351244    14A    -10.347620    15A    -10.345952  
      16A    -10.345411    17A    -10.339164    18A     -8.091580  
      19A     -6.041354    20A     -6.036990    21A     -6.030837  
      22A     -1.383887    23A     -1.328041    24A     -1.189457  
      25A     -1.177348    26A     -1.147462    27A     -1.092377  
      28A     -0.998723    29A     -0.936043    30A     -0.901843  
      31A     -0.887235    32A     -0.865148    33A     -0.791900  
      34A     -0.764084    35A     -0.750626    36A     -0.739952  
      37A     -0.695584    38A     -0.678515    39A     -0.667969  
      40A     -0.658105    41A     -0.642548    42A     -0.626786  
      43A     -0.588817    44A     -0.580173    45A     -0.566823  
      46A     -0.562379    47A     -0.556012    48A     -0.553595  
      49A     -0.552256    50A     -0.538357    51A     -0.534343  
      52A     -0.522288    53A     -0.518772    54A     -0.513843  
      55A     -0.500648    56A     -0.496539    57A     -0.494173  
      58A     -0.478359    59A     -0.473769    60A     -0.455880  
      61A     -0.427415    62A     -0.398847    63A     -0.395763  
      64A     -0.382664    65A     -0.368843    66A     -0.335902  
      67A     -0.312119  

    Virtual:                                                              

      68A     -0.052765    69A      0.008470    70A      0.023685  
      71A      0.030779    72A      0.036582    73A      0.042730  
      74A      0.046996    75A      0.056946    76A      0.060187  
      77A      0.063074    78A      0.066008    79A      0.069033  
      80A      0.081812    81A      0.082905    82A      0.088004  
      83A      0.092125    84A      0.099802    85A      0.110238  
      86A      0.112199    87A      0.113831    88A      0.115525  
      89A      0.120050    90A      0.121367    91A      0.124785  
      92A      0.129054    93A      0.132791    94A      0.139091  
      95A      0.145639    96A      0.147287    97A      0.152556  
      98A      0.154545    99A      0.156938   100A      0.158757  
     101A      0.163323   102A      0.168899   103A      0.171304  
     104A      0.173793   105A      0.177952   106A      0.182322  
     107A      0.188886   108A      0.190691   109A      0.195361  
     110A      0.196694   111A      0.201148   112A      0.203079  
     113A      0.209132   114A      0.213337   115A      0.218162  
     116A      0.220802   117A      0.227716   118A      0.230307  
     119A      0.233866   120A      0.236279   121A      0.242396  
     122A      0.248216   123A      0.252609   124A      0.253872  
     125A      0.257589   126A      0.259919   127A      0.262510  
     128A      0.268187   129A      0.275486   130A      0.277710  
     131A      0.279919   132A      0.282754   133A      0.285896  
     134A      0.290261   135A      0.294844   136A      0.295198  
     137A      0.302861   138A      0.305425   139A      0.307233  
     140A      0.312342   141A      0.319782   142A      0.323321  
     143A      0.326927   144A      0.328324   145A      0.330641  
     146A      0.336573   147A      0.342365   148A      0.344734  
     149A      0.346448   150A      0.352465   151A      0.357418  
     152A      0.359485   153A      0.365218   154A      0.369123  
     155A      0.373411   156A      0.376772   157A      0.377461  
     158A      0.380919   159A      0.384876   160A      0.389569  
     161A      0.393828   162A      0.398423   163A      0.404206  
     164A      0.407727   165A      0.409535   166A      0.417883  
     167A      0.420925   168A      0.432989   169A      0.437504  
     170A      0.438529   171A      0.445883   172A      0.449775  
     173A      0.451000   174A      0.455278   175A      0.460117  
     176A      0.469926   177A      0.478043   178A      0.482137  
     179A      0.484066   180A      0.489418   181A      0.498089  
     182A      0.500597   183A      0.510348   184A      0.519604  
     185A      0.522600   186A      0.524665   187A      0.527373  
     188A      0.532030   189A      0.541959   190A      0.547761  
     191A      0.551902   192A      0.553714   193A      0.562998  
     194A      0.571314   195A      0.576954   196A      0.579874  
     197A      0.580064   198A      0.590896   199A      0.593969  
     200A      0.604620   201A      0.608609   202A      0.615823  
     203A      0.617554   204A      0.628109   205A      0.633603  
     206A      0.639784   207A      0.641050   208A      0.646810  
     209A      0.648216   210A      0.652482   211A      0.656466  
     212A      0.658313   213A      0.663472   214A      0.671674  
     215A      0.672391   216A      0.678332   217A      0.680536  
     218A      0.686435   219A      0.691234   220A      0.695971  
     221A      0.707421   222A      0.717494   223A      0.718797  
     224A      0.728900   225A      0.729966   226A      0.735836  
     227A      0.737640   228A      0.740531   229A      0.749239  
     230A      0.754496   231A      0.760118   232A      0.770519  
     233A      0.775275   234A      0.779694   235A      0.784013  
     236A      0.795436   237A      0.795698   238A      0.807234  
     239A      0.812262   240A      0.820782   241A      0.822091  
     242A      0.828484   243A      0.837747   244A      0.843014  
     245A      0.847082   246A      0.855912   247A      0.860556  
     248A      0.878779   249A      0.880542   250A      0.885386  
     251A      0.896014   252A      0.897869   253A      0.905159  
     254A      0.908665   255A      0.916794   256A      0.932232  
     257A      0.936608   258A      0.949770   259A      0.963953  
     260A      0.969842   261A      0.979322   262A      0.982678  
     263A      0.989480   264A      0.998494   265A      1.003623  
     266A      1.012626   267A      1.029871   268A      1.037515  
     269A      1.042351   270A      1.050628   271A      1.068200  
     272A      1.078688   273A      1.090509   274A      1.095169  
     275A      1.106599   276A      1.109765   277A      1.116227  
     278A      1.120165   279A      1.129836   280A      1.135155  
     281A      1.142702   282A      1.149459   283A      1.157315  
     284A      1.176889   285A      1.187064   286A      1.197609  
     287A      1.209001   288A      1.221615   289A      1.228743  
     290A      1.235516   291A      1.246128   292A      1.259586  
     293A      1.264278   294A      1.270059   295A      1.281529  
     296A      1.289342   297A      1.297108   298A      1.305563  
     299A      1.310617   300A      1.312841   301A      1.321312  
     302A      1.334995   303A      1.343711   304A      1.349209  
     305A      1.369909   306A      1.377304   307A      1.388826  
     308A      1.393920   309A      1.405555   310A      1.409635  
     311A      1.416587   312A      1.433203   313A      1.440904  
     314A      1.448739   315A      1.458487   316A      1.466060  
     317A      1.476839   318A      1.488328   319A      1.508451  
     320A      1.515053   321A      1.526855   322A      1.542143  
     323A      1.545452   324A      1.554726   325A      1.557030  
     326A      1.572906   327A      1.576254   328A      1.583574  
     329A      1.584838   330A      1.598326   331A      1.600243  
     332A      1.601016   333A      1.622566   334A      1.626442  
     335A      1.632598   336A      1.643042   337A      1.652186  
     338A      1.655006   339A      1.656708   340A      1.662661  
     341A      1.672164   342A      1.681437   343A      1.695673  
     344A      1.707846   345A      1.723646   346A      1.731063  
     347A      1.734247   348A      1.746416   349A      1.757072  
     350A      1.760662   351A      1.764487   352A      1.785960  
     353A      1.792560   354A      1.801747   355A      1.807849  
     356A      1.830832   357A      1.837344   358A      1.844647  
     359A      1.854572   360A      1.863151   361A      1.877746  
     362A      1.884689   363A      1.888794   364A      1.903923  
     365A      1.912197   366A      1.918857   367A      1.936100  
     368A      1.943651   369A      1.946972   370A      1.951944  
     371A      1.960021   372A      1.969922   373A      1.976122  
     374A      1.988878   375A      1.999549   376A      2.017507  
     377A      2.022751   378A      2.024885   379A      2.035605  
     380A      2.040337   381A      2.057614   382A      2.062507  
     383A      2.090411   384A      2.098109   385A      2.104893  
     386A      2.106965   387A      2.113366   388A      2.126965  
     389A      2.137308   390A      2.143650   391A      2.153033  
     392A      2.162555   393A      2.167183   394A      2.183656  
     395A      2.204342   396A      2.223258   397A      2.230833  
     398A      2.234695   399A      2.239804   400A      2.270453  
     401A      2.291654   402A      2.297501   403A      2.308974  
     404A      2.313905   405A      2.338324   406A      2.341907  
     407A      2.360650   408A      2.376767   409A      2.383213  
     410A      2.399123   411A      2.412147   412A      2.434237  
     413A      2.443784   414A      2.459591   415A      2.476034  
     416A      2.491289   417A      2.524730   418A      2.531434  
     419A      2.547215   420A      2.558480   421A      2.572238  
     422A      2.616982   423A      2.644282   424A      2.671294  
     425A      2.676356   426A      2.695491   427A      2.704678  
     428A      2.728782   429A      2.744300   430A      2.752556  
     431A      2.782300   432A      2.787285   433A      2.805345  
     434A      2.880835   435A      2.955786   436A      2.993407  
     437A      3.038392   438A      3.062102   439A      3.088466  
     440A      3.123992   441A      3.159647   442A      3.269487  
     443A      3.367429   444A      3.409748   445A      3.431683  
     446A      3.436577   447A      3.455311   448A      3.479084  
     449A      3.491447   450A      3.506604   451A      3.529052  
     452A      3.548676   453A      3.563296   454A      3.580543  
     455A      3.589141   456A      3.614672   457A      3.629321  
     458A      3.710817   459A      3.732908   460A      3.815240  
     461A      3.863369   462A      3.888512   463A      3.948563  
     464A      4.086758   465A      4.252091   466A      4.558118  
     467A      4.610377   468A      4.647788   469A      4.682938  
     470A      4.721713   471A      4.743057   472A      4.744555  
     473A      4.806006   474A      4.842902   475A      4.849055  
     476A      4.898423  

    Final Occupation by Irrep:
              A 
    DOCC [    67 ]

  @DF-RKS Final Energy: -1264.60549603224058

   => Energetics <=

    Nuclear Repulsion Energy =           1350.7978363421609629
    One-Electron Energy =               -4420.4904423633242914
    Two-Electron Energy =                1901.1651062472803915
    DFT Exchange-Correlation Energy =     -96.0600334795953472
    Empirical Dispersion Energy =          -0.0179627787618970
    VV10 Nonlocal Energy =                  0.0000000000000000
    Total Energy =                      -1264.6054960322403531

Computation Completed


Properties will be evaluated at  -0.000000,   0.000000,  -0.000000 [a0]

Properties computed using the SCF density matrix

  Nuclear Dipole Moment: [e a0]
     X:    29.2046      Y:     0.7142      Z:    -1.3077

  Electronic Dipole Moment: [e a0]
     X:   -26.6304      Y:    -0.9261      Z:     1.1140

  Dipole Moment: [e a0]
     X:     2.5741      Y:    -0.2119      Z:    -0.1937     Total:     2.5901

  Dipole Moment: [D]
     X:     6.5428      Y:    -0.5385      Z:    -0.4924     Total:     6.5834


*** tstop() called on cpu-spot-dy-c5n2xlarge-1 at Tue Jun 22 18:30:57 2021
Module time:
	user time   =     941.51 seconds =      15.69 minutes
	system time =       9.18 seconds =       0.15 minutes
	total time  =        128 seconds =       2.13 minutes
Total time:
	user time   =    3191.42 seconds =      53.19 minutes
	system time =      32.70 seconds =       0.54 minutes
	total time  =        433 seconds =       7.22 minutes

       N-Body: Complex Energy (fragments = (1, 2), basis = (1, 2): -1264.60549603224058)

   ==> N-Body: Counterpoise Corrected (CP) energies <==

   n-Body     Total Energy [Eh]       I.E. [kcal/mol]      Delta [kcal/mol]
        1    -1264.627260273253        0.000000000000        0.000000000000
        2    -1264.603853368527       14.688054467383       14.688054467383

   => Loading Basis Set <=

    Name: DEF2-SVP
    Role: ORBITAL
    Keyword: BASIS
    atoms 1             entry N          line   110 file /fsx/users/francis/anaconda3/envs/poltype-dev/share/psi4/basis/def2-svp.gbs 
    atoms 2-3, 6-12, 14 entry C          line    90 file /fsx/users/francis/anaconda3/envs/poltype-dev/share/psi4/basis/def2-svp.gbs 
    atoms 4-5           entry F          line   150 file /fsx/users/francis/anaconda3/envs/poltype-dev/share/psi4/basis/def2-svp.gbs 
    atoms 13            entry S          line   328 file /fsx/users/francis/anaconda3/envs/poltype-dev/share/psi4/basis/def2-svp.gbs 
    atoms 15-16, 24     entry O          line   130 file /fsx/users/francis/anaconda3/envs/poltype-dev/share/psi4/basis/def2-svp.gbs 
    atoms 17-23, 25-26  entry H          line    15 file /fsx/users/francis/anaconda3/envs/poltype-dev/share/psi4/basis/def2-svp.gbs 

CP Energy =   0.023407
    Psi4 stopped on: Tuesday, 22 June 2021 06:30PM
    Psi4 wall time for execution: 0:07:12.99

*** Psi4 exiting successfully. Buy a developer a beer!
