
    -----------------------------------------------------------------------
          Psi4: An Open-Source Ab Initio Electronic Structure Package
                               Psi4 1.3.2 release

                         Git: Rev {HEAD} ecbda83 


    R. M. Parrish, L. A. Burns, D. G. A. Smith, A. C. Simmonett,
    A. E. DePrince III, E. G. Hohenstein, U. Bozkaya, A. Yu. Sokolov,
    R. Di Remigio, R. M. Richard, J. F. Gonthier, A. M. James,
    H. R. McAlexander, A. Kumar, M. Saitow, X. Wang, B. P. Pritchard,
    P. Verma, H. F. Schaefer III, K. Patkowski, R. A. King, E. F. Valeev,
    F. A. Evangelista, J. M. Turney, T. D. Crawford, and C. D. Sherrill,
    J. Chem. Theory Comput. 13(7) pp 3185--3197 (2017).
    (doi: 10.1021/acs.jctc.7b00174)


                         Additional Contributions by
    P. Kraus, H. Kruse, M. H. Lechner, M. C. Schieber, R. A. Shaw,
    A. Alenaizan, R. Galvelis, Z. L. Glick, S. Lehtola, and J. P. Misiewicz

    -----------------------------------------------------------------------


    Psi4 started on: Tuesday, 22 June 2021 05:03PM

    Process ID: 27186
    Host:       cpu-spot-dy-c5n2xlarge-1
    PSIDATADIR: /fsx/users/francis/anaconda3/envs/poltype-dev/share/psi4
    Memory:     500.0 MiB
    Threads:    1
    
  ==> Input File <==

--------------------------------------------------------------------------
molecule { 
0 1
  N                 -0.9434020    -1.2946320    -0.0708730
  C                 -2.2086410    -1.0439180     0.3936770
  C                 -2.5064230     0.4442600     0.7696760
  F                 -3.7903720     0.7497380     0.3523190
  F                 -2.4836960     0.5330490     2.1429320
  C                 -1.5166830     1.5216170     0.2013870
  C                 -0.1964200     1.0409120    -0.2702800
  C                  0.7882390     1.9604880    -0.6925130
  C                  2.0449640     1.5210510    -1.1271190
  C                  2.3379690     0.1335820    -1.1724330
  C                  1.3372550    -0.7903110    -0.8016000
  C                  0.0734500    -0.3537710    -0.3679190
  S                  3.8924890    -0.5349890    -1.6856220
  C                  4.9258200    -0.3817870    -0.2070430
  O                 -3.0103620    -1.9559730     0.5455690
  O                 -1.8061590     2.7159920     0.2283820
  H                  2.7864760     2.2648640    -1.4172820
  H                  0.5494890     3.0238560    -0.6588960
  H                 -0.7909570    -2.2752920    -0.2609620
  H                  1.5516850    -1.8593380    -0.8390890
  H                  5.1500330     0.6747250    -0.0313260
  H                  4.3926260    -0.7947290     0.6550380
  H                  5.8560830    -0.9356900    -0.3635650
--
0 1
  O                 -2.6872056     0.3936580    -2.7969424
  H                 -3.6113596     0.4136720    -2.5374514
  H                 -2.5221646     1.1509840    -3.3605904
}
memory 16GB
set_num_threads(8)
psi4_io.set_default_path("/scratch/Psi4-ligand")
set maxiter 500
set freeze_core True
set PROPERTIES_ORIGIN ["COM"]
e_dim= energy('wb97x-d/aug-cc-pVDZ',bsse_type='cp')

psi4.print_out('CP Energy = %10.6f' % (e_dim))
clean()
--------------------------------------------------------------------------

  Memory set to  14.901 GiB by Python driver.
  Threads set to 8 by Python driver.


   ===> N-Body Interaction Abacus <===
        BSSE Treatment:                     cp
        Number of 1-body computations:     4
        Number of 2-body computations:     1

   ==> N-Body: Now computing 1-body complexes <==


       N-Body: Computing complex (1/4) with fragments (2,) in the basis of fragments (2,).


*** tstart() called on cpu-spot-dy-c5n2xlarge-1
*** at Tue Jun 22 17:03:13 2021

   => Loading Basis Set <=

    Name: AUG-CC-PVDZ
    Role: ORBITAL
    Keyword: BASIS
    atoms 1   entry O          line   250 file /fsx/users/francis/anaconda3/envs/poltype-dev/share/psi4/basis/aug-cc-pvdz.gbs 
    atoms 2-3 entry H          line    36 file /fsx/users/francis/anaconda3/envs/poltype-dev/share/psi4/basis/aug-cc-pvdz.gbs 


         ---------------------------------------------------------
                                   SCF
               by Justin Turney, Rob Parrish, Andy Simmonett
                          and Daniel G. A. Smith
                              RKS Reference
                        8 Threads,  15258 MiB Core
         ---------------------------------------------------------

  ==> Geometry <==

    Molecular point group: c1
    Full point group: C1

    Geometry (in Angstrom), charge = 0, multiplicity = 1:

       Center              X                  Y                   Z               Mass       
    ------------   -----------------  -----------------  -----------------  -----------------
         O           -2.482025755156     0.171873087719    -2.459773775404    15.994914619570
         H           -3.406179755156     0.191887087719    -2.200282775404     1.007825032230
         H           -2.316984755156     0.929199087719    -3.023421775404     1.007825032230

  Running in c1 symmetry.

  Rotational constants: A =     11.36482  B =      0.07437  C =      0.07406 [cm^-1]
  Rotational constants: A = 340708.67824  B =   2229.45087  C =   2220.38319 [MHz]
  Nuclear repulsion =    9.167680042183251

  Charge       = 0
  Multiplicity = 1
  Electrons    = 10
  Nalpha       = 5
  Nbeta        = 5

  ==> Algorithm <==

  SCF Algorithm Type is DF.
  DIIS enabled.
  MOM disabled.
  Fractional occupation disabled.
  Guess Type is SAD.
  Energy threshold   = 1.00e-06
  Density threshold  = 1.00e-06
  Integral threshold = 0.00e+00

  ==> Primary Basis <==

  Basis Set: AUG-CC-PVDZ
    Blend: AUG-CC-PVDZ
    Number of shells: 19
    Number of basis function: 41
    Number of Cartesian functions: 43
    Spherical Harmonics?: true
    Max angular momentum: 2

  ==> DFT Potential <==

   => Composite Functional: WB97X-D <= 

    wB97X-D Hyb-GGA Exchange-Correlation Functional

    J.-D. Chai and M. Head-Gordon, Phys. Chem. Chem. Phys. 10, 6615 (2008)

    Deriv               =              1
    GGA                 =           TRUE
    Meta                =          FALSE

    Exchange Hybrid     =           TRUE
    MP2 Hybrid          =          FALSE

   => Exchange-Correlation Functionals <=

    1.0000   wB97D range-separated functional

   => Exact (HF) Exchange <=

    0.7780            HF,LR [omega = 0.2000]
    0.2220               HF 

   => Molecular Quadrature <=

    Radial Scheme          =       TREUTLER
    Pruning Scheme         =           FLAT
    Nuclear Scheme         =       TREUTLER

    BS radius alpha        =              1
    Pruning alpha          =              1
    Radial Points          =             75
    Spherical Points       =            302
    Total Points           =          67950
    Total Blocks           =            564
    Max Points             =            256
    Max Functions          =             41

   => WB97X-D: Empirical Dispersion <=

    Chai and Head-Gordon Dispersion Correction
    Chai, J.-D.; Head-Gordon, M. (2010), J. Chem. Phys., 132: 6615-6620

        s6 =       1.000000

   => Loading Basis Set <=

    Name: (AUG-CC-PVDZ AUX)
    Role: JKFIT
    Keyword: DF_BASIS_SCF
    atoms 1   entry O          line   270 file /fsx/users/francis/anaconda3/envs/poltype-dev/share/psi4/basis/aug-cc-pvdz-jkfit.gbs 
    atoms 2-3 entry H          line    70 file /fsx/users/francis/anaconda3/envs/poltype-dev/share/psi4/basis/aug-cc-pvdz-jkfit.gbs 

  ==> Pre-Iterations <==

   -------------------------------------------------------
    Irrep   Nso     Nmo     Nalpha   Nbeta   Ndocc  Nsocc
   -------------------------------------------------------
     A         41      41       0       0       0       0
   -------------------------------------------------------
    Total      41      41       5       5       5       0
   -------------------------------------------------------

  ==> Integral Setup <==

  ==> DiskDFJK: Density-Fitted J/K Matrices <==

    J tasked:                  Yes
    K tasked:                  Yes
    wK tasked:                 Yes
    Omega:               2.000E-01
    OpenMP threads:              8
    Integrals threads:           8
    Memory [MiB]:            11363
    Algorithm:                Core
    Integral Cache:           NONE
    Schwarz Cutoff:          1E-12
    Fitting Condition:       1E-10

   => Auxiliary Basis Set <=

  Basis Set: (AUG-CC-PVDZ AUX)
    Blend: AUG-CC-PVDZ-JKFIT
    Number of shells: 52
    Number of basis function: 150
    Number of Cartesian functions: 171
    Spherical Harmonics?: true
    Max angular momentum: 3

  Cached 100.0% of DFT collocation blocks in 0.079 [GiB].

  Minimum eigenvalue in the overlap matrix is 2.8193515776E-03.
  Using Symmetric Orthogonalization.

  SCF Guess: Superposition of Atomic Densities via on-the-fly atomic UHF.

  ==> Iterations <==

                           Total Energy        Delta E     RMS |[F,P]|

   @DF-RKS iter SAD:   -75.95321700263922   -7.59532e+01   0.00000e+00 
   @DF-RKS iter   1:   -76.27476441391401   -3.21547e-01   1.51054e-02 DIIS
   @DF-RKS iter   2:   -76.22813353903578    4.66309e-02   1.77952e-02 DIIS
   @DF-RKS iter   3:   -76.41935955622112   -1.91226e-01   3.63709e-04 DIIS
   @DF-RKS iter   4:   -76.41950459420983   -1.45038e-04   9.79776e-05 DIIS
   @DF-RKS iter   5:   -76.41951244460411   -7.85039e-06   1.86390e-05 DIIS
   @DF-RKS iter   6:   -76.41951276987960   -3.25275e-07   2.02234e-06 DIIS
   @DF-RKS iter   7:   -76.41951278050669   -1.06271e-08   2.55049e-07 DIIS
  Energy and wave function converged.


  ==> Post-Iterations <==

    Orbital Energies [Eh]
    ---------------------

    Doubly Occupied:                                                      

       1A    -19.278283     2A     -1.119637     3A     -0.632119  
       4A     -0.478515     5A     -0.406743  

    Virtual:                                                              

       6A      0.034026     7A      0.060946     8A      0.162146  
       9A      0.190777    10A      0.199490    11A      0.217702  
      12A      0.255703    13A      0.301685    14A      0.361988  
      15A      0.378259    16A      0.408160    17A      0.518155  
      18A      0.580144    19A      0.603718    20A      0.717066  
      21A      0.809684    22A      0.980420    23A      0.991959  
      24A      1.034589    25A      1.174839    26A      1.289264  
      27A      1.315532    28A      1.397340    29A      1.817921  
      30A      1.850668    31A      1.920386    32A      2.227868  
      33A      2.233138    34A      2.376514    35A      2.497969  
      36A      2.710936    37A      3.372575    38A      3.384521  
      39A      3.402574    40A      3.737779    41A      3.969136  

    Final Occupation by Irrep:
              A 
    DOCC [     5 ]

  @DF-RKS Final Energy:   -76.41951278050669

   => Energetics <=

    Nuclear Repulsion Energy =              9.1676800421832514
    One-Electron Energy =                -122.9496038697742222
    Two-Electron Energy =                  43.8352063088210286
    DFT Exchange-Correlation Energy =      -6.4727644462484539
    Empirical Dispersion Energy =          -0.0000308154882910
    VV10 Nonlocal Energy =                  0.0000000000000000
    Total Energy =                        -76.4195127805066790

Computation Completed


Properties will be evaluated at  -4.770621,   0.406992,  -4.680462 [a0]

Properties computed using the SCF density matrix

  Nuclear Dipole Moment: [e a0]
     X:    -0.6318      Y:     0.6470      Z:    -0.2531

  Electronic Dipole Moment: [e a0]
     X:     0.1461      Y:    -0.1492      Z:     0.0583

  Dipole Moment: [e a0]
     X:    -0.4857      Y:     0.4977      Z:    -0.1949     Total:     0.7223

  Dipole Moment: [D]
     X:    -1.2346      Y:     1.2651      Z:    -0.4953     Total:     1.8358


*** tstop() called on cpu-spot-dy-c5n2xlarge-1 at Tue Jun 22 17:03:14 2021
Module time:
	user time   =       8.11 seconds =       0.14 minutes
	system time =       0.28 seconds =       0.00 minutes
	total time  =          1 seconds =       0.02 minutes
Total time:
	user time   =       8.11 seconds =       0.14 minutes
	system time =       0.28 seconds =       0.00 minutes
	total time  =          1 seconds =       0.02 minutes

       N-Body: Complex Energy (fragments = (2,), basis = (2,):   -76.41951278050669)

       N-Body: Computing complex (2/4) with fragments (2,) in the basis of fragments (1, 2).


*** tstart() called on cpu-spot-dy-c5n2xlarge-1
*** at Tue Jun 22 17:03:14 2021

   => Loading Basis Set <=

    Name: AUG-CC-PVDZ
    Role: ORBITAL
    Keyword: BASIS
    atoms 1             entry N          line   214 file /fsx/users/francis/anaconda3/envs/poltype-dev/share/psi4/basis/aug-cc-pvdz.gbs 
    atoms 2-3, 6-12, 14 entry C          line   178 file /fsx/users/francis/anaconda3/envs/poltype-dev/share/psi4/basis/aug-cc-pvdz.gbs 
    atoms 4-5           entry F          line   286 file /fsx/users/francis/anaconda3/envs/poltype-dev/share/psi4/basis/aug-cc-pvdz.gbs 
    atoms 13            entry S          line   698 file /fsx/users/francis/anaconda3/envs/poltype-dev/share/psi4/basis/aug-cc-pvdz.gbs 
    atoms 15-16, 24     entry O          line   250 file /fsx/users/francis/anaconda3/envs/poltype-dev/share/psi4/basis/aug-cc-pvdz.gbs 
    atoms 17-23, 25-26  entry H          line    36 file /fsx/users/francis/anaconda3/envs/poltype-dev/share/psi4/basis/aug-cc-pvdz.gbs 


         ---------------------------------------------------------
                                   SCF
               by Justin Turney, Rob Parrish, Andy Simmonett
                          and Daniel G. A. Smith
                              RKS Reference
                        8 Threads,  15258 MiB Core
         ---------------------------------------------------------

  ==> Geometry <==

    Molecular point group: c1
    Full point group: C1

    Geometry (in Angstrom), charge = 0, multiplicity = 1:

       Center              X                  Y                   Z               Mass       
    ------------   -----------------  -----------------  -----------------  -----------------
      Gh(N)          -0.738222155156    -1.516416912281     0.266295624596    14.003074004430
      Gh(C)          -2.003461155156    -1.265702912281     0.730845624596    12.000000000000
      Gh(C)          -2.301243155156     0.222475087719     1.106844624596    12.000000000000
      Gh(F)          -3.585192155156     0.527953087719     0.689487624596    18.998403162730
      Gh(F)          -2.278516155156     0.311264087719     2.480100624596    18.998403162730
      Gh(C)          -1.311503155156     1.299832087719     0.538555624596    12.000000000000
      Gh(C)           0.008759844844     0.819127087719     0.066888624596    12.000000000000
      Gh(C)           0.993418844844     1.738703087719    -0.355344375404    12.000000000000
      Gh(C)           2.250143844844     1.299266087719    -0.789950375404    12.000000000000
      Gh(C)           2.543148844844    -0.088202912281    -0.835264375404    12.000000000000
      Gh(C)           1.542434844844    -1.012095912281    -0.464431375404    12.000000000000
      Gh(C)           0.278629844844    -0.575555912281    -0.030750375404    12.000000000000
      Gh(S)           4.097668844844    -0.756773912281    -1.348453375404    31.972071174400
      Gh(C)           5.130999844844    -0.603571912281     0.130125624596    12.000000000000
      Gh(O)          -2.805182155156    -2.177757912281     0.882737624596    15.994914619570
      Gh(O)          -1.600979155156     2.494207087719     0.565550624596    15.994914619570
      Gh(H)           2.991655844844     2.043079087719    -1.080113375404     1.007825032230
      Gh(H)           0.754668844844     2.802071087719    -0.321727375404     1.007825032230
      Gh(H)          -0.585777155156    -2.497076912281     0.076206624596     1.007825032230
      Gh(H)           1.756864844844    -2.081122912281    -0.501920375404     1.007825032230
      Gh(H)           5.355212844844     0.452940087719     0.305842624596     1.007825032230
      Gh(H)           4.597805844844    -1.016513912281     0.992206624596     1.007825032230
      Gh(H)           6.061262844844    -1.157474912281    -0.026396375404     1.007825032230
         O           -2.482025755156     0.171873087719    -2.459773775404    15.994914619570
         H           -3.406179755156     0.191887087719    -2.200282775404     1.007825032230
         H           -2.316984755156     0.929199087719    -3.023421775404     1.007825032230

  Running in c1 symmetry.

  Rotational constants: A =      0.02600  B =      0.00744  C =      0.00710 [cm^-1]
  Rotational constants: A =    779.49450  B =    223.06781  C =    212.84784 [MHz]
  Nuclear repulsion =    9.167680042183251

  Charge       = 0
  Multiplicity = 1
  Electrons    = 10
  Nalpha       = 5
  Nbeta        = 5

  ==> Algorithm <==

  SCF Algorithm Type is DF.
  DIIS enabled.
  MOM disabled.
  Fractional occupation disabled.
  Guess Type is SAD.
  Energy threshold   = 1.00e-06
  Density threshold  = 1.00e-06
  Integral threshold = 0.00e+00

  ==> Primary Basis <==

  Basis Set: AUG-CC-PVDZ
    Blend: AUG-CC-PVDZ
    Number of shells: 200
    Number of basis function: 476
    Number of Cartesian functions: 510
    Spherical Harmonics?: true
    Max angular momentum: 2

  ==> DFT Potential <==

   => Composite Functional: WB97X-D <= 

    wB97X-D Hyb-GGA Exchange-Correlation Functional

    J.-D. Chai and M. Head-Gordon, Phys. Chem. Chem. Phys. 10, 6615 (2008)

    Deriv               =              1
    GGA                 =           TRUE
    Meta                =          FALSE

    Exchange Hybrid     =           TRUE
    MP2 Hybrid          =          FALSE

   => Exchange-Correlation Functionals <=

    1.0000   wB97D range-separated functional

   => Exact (HF) Exchange <=

    0.7780            HF,LR [omega = 0.2000]
    0.2220               HF 

   => Molecular Quadrature <=

    Radial Scheme          =       TREUTLER
    Pruning Scheme         =           FLAT
    Nuclear Scheme         =       TREUTLER

    BS radius alpha        =              1
    Pruning alpha          =              1
    Radial Points          =             75
    Spherical Points       =            302
    Total Points           =         588900
    Total Blocks           =           4353
    Max Points             =            256
    Max Functions          =            426

   => WB97X-D: Empirical Dispersion <=

    Chai and Head-Gordon Dispersion Correction
    Chai, J.-D.; Head-Gordon, M. (2010), J. Chem. Phys., 132: 6615-6620

        s6 =       1.000000

   => Loading Basis Set <=

    Name: (AUG-CC-PVDZ AUX)
    Role: JKFIT
    Keyword: DF_BASIS_SCF
    atoms 1             entry N          line   212 file /fsx/users/francis/anaconda3/envs/poltype-dev/share/psi4/basis/aug-cc-pvdz-jkfit.gbs 
    atoms 2-3, 6-12, 14 entry C          line   154 file /fsx/users/francis/anaconda3/envs/poltype-dev/share/psi4/basis/aug-cc-pvdz-jkfit.gbs 
    atoms 4-5           entry F          line   328 file /fsx/users/francis/anaconda3/envs/poltype-dev/share/psi4/basis/aug-cc-pvdz-jkfit.gbs 
    atoms 13            entry S          line   690 file /fsx/users/francis/anaconda3/envs/poltype-dev/share/psi4/basis/aug-cc-pvdz-jkfit.gbs 
    atoms 15-16, 24     entry O          line   270 file /fsx/users/francis/anaconda3/envs/poltype-dev/share/psi4/basis/aug-cc-pvdz-jkfit.gbs 
    atoms 17-23, 25-26  entry H          line    70 file /fsx/users/francis/anaconda3/envs/poltype-dev/share/psi4/basis/aug-cc-pvdz-jkfit.gbs 

  ==> Pre-Iterations <==

   -------------------------------------------------------
    Irrep   Nso     Nmo     Nalpha   Nbeta   Ndocc  Nsocc
   -------------------------------------------------------
     A        476     476       0       0       0       0
   -------------------------------------------------------
    Total     476     476       5       5       5       0
   -------------------------------------------------------

  ==> Integral Setup <==

  ==> DiskDFJK: Density-Fitted J/K Matrices <==

    J tasked:                  Yes
    K tasked:                  Yes
    wK tasked:                 Yes
    Omega:               2.000E-01
    OpenMP threads:              8
    Integrals threads:           8
    Memory [MiB]:             5910
    Algorithm:                Core
    Integral Cache:           NONE
    Schwarz Cutoff:          1E-12
    Fitting Condition:       1E-10

   => Auxiliary Basis Set <=

  Basis Set: (AUG-CC-PVDZ AUX)
    Blend: AUG-CC-PVDZ-JKFIT
    Number of shells: 596
    Number of basis function: 1792
    Number of Cartesian functions: 2081
    Spherical Harmonics?: true
    Max angular momentum: 3

  Cached 100.0% of DFT collocation blocks in 5.404 [GiB].

  Minimum eigenvalue in the overlap matrix is 1.3802530995E-06.
  Using Symmetric Orthogonalization.

  SCF Guess: Superposition of Atomic Densities via on-the-fly atomic UHF.

  ==> Iterations <==

                           Total Energy        Delta E     RMS |[F,P]|

   @DF-RKS iter SAD:   -75.95322546356701   -7.59532e+01   0.00000e+00 
   @DF-RKS iter   1:   -76.27499973983852   -3.21774e-01   1.30325e-03 DIIS
   @DF-RKS iter   2:   -76.22816999249466    4.68297e-02   1.53565e-03 DIIS
   @DF-RKS iter   3:   -76.41961789814985   -1.91448e-01   3.16866e-05 DIIS
   @DF-RKS iter   4:   -76.41976887800200   -1.50980e-04   8.65457e-06 DIIS
   @DF-RKS iter   5:   -76.41977719792908   -8.31993e-06   1.61734e-06 DIIS
   @DF-RKS iter   6:   -76.41977753691883   -3.38990e-07   1.80717e-07 DIIS
  Energy and wave function converged.


  ==> Post-Iterations <==

    Orbital Energies [Eh]
    ---------------------

    Doubly Occupied:                                                      

       1A    -19.278249     2A     -1.119559     3A     -0.632011  
       4A     -0.478409     5A     -0.406610  

    Virtual:                                                              

       6A      0.021298     7A      0.030881     8A      0.038343  
       9A      0.044797    10A      0.050192    11A      0.055361  
      12A      0.059323    13A      0.069507    14A      0.072743  
      15A      0.077837    16A      0.081180    17A      0.089262  
      18A      0.092872    19A      0.096868    20A      0.104483  
      21A      0.107525    22A      0.110788    23A      0.117765  
      24A      0.121275    25A      0.124912    26A      0.132566  
      27A      0.137583    28A      0.143051    29A      0.144640  
      30A      0.147749    31A      0.154002    32A      0.158771  
      33A      0.163712    34A      0.167546    35A      0.169180  
      36A      0.172941    37A      0.176782    38A      0.178398  
      39A      0.184042    40A      0.190904    41A      0.191887  
      42A      0.197303    43A      0.201867    44A      0.207722  
      45A      0.212667    46A      0.216797    47A      0.219935  
      48A      0.223729    49A      0.225695    50A      0.229088  
      51A      0.237322    52A      0.237673    53A      0.241085  
      54A      0.246550    55A      0.252677    56A      0.254846  
      57A      0.262958    58A      0.268912    59A      0.274340  
      60A      0.283984    61A      0.285389    62A      0.287627  
      63A      0.295314    64A      0.299332    65A      0.304928  
      66A      0.309013    67A      0.320491    68A      0.321220  
      69A      0.332493    70A      0.335308    71A      0.337916  
      72A      0.344615    73A      0.349311    74A      0.350861  
      75A      0.353721    76A      0.362409    77A      0.363324  
      78A      0.377539    79A      0.378090    80A      0.382554  
      81A      0.389808    82A      0.395446    83A      0.401686  
      84A      0.407677    85A      0.410619    86A      0.413679  
      87A      0.420361    88A      0.424187    89A      0.431862  
      90A      0.432925    91A      0.439314    92A      0.450792  
      93A      0.453787    94A      0.455459    95A      0.459657  
      96A      0.467268    97A      0.473433    98A      0.476050  
      99A      0.482875   100A      0.491624   101A      0.492703  
     102A      0.500746   103A      0.508096   104A      0.512299  
     105A      0.515960   106A      0.527513   107A      0.530303  
     108A      0.534563   109A      0.539870   110A      0.547543  
     111A      0.553877   112A      0.557205   113A      0.563475  
     114A      0.566418   115A      0.567707   116A      0.572800  
     117A      0.576956   118A      0.580949   119A      0.586006  
     120A      0.600905   121A      0.609028   122A      0.611192  
     123A      0.621091   124A      0.622780   125A      0.627122  
     126A      0.631288   127A      0.639312   128A      0.640450  
     129A      0.645540   130A      0.653231   131A      0.657255  
     132A      0.669159   133A      0.672783   134A      0.680765  
     135A      0.683911   136A      0.689358   137A      0.705043  
     138A      0.711092   139A      0.717962   140A      0.722284  
     141A      0.728153   142A      0.733892   143A      0.739479  
     144A      0.742990   145A      0.747542   146A      0.759921  
     147A      0.768802   148A      0.770625   149A      0.778612  
     150A      0.793997   151A      0.797150   152A      0.801102  
     153A      0.804890   154A      0.817363   155A      0.821312  
     156A      0.830050   157A      0.835169   158A      0.843995  
     159A      0.848769   160A      0.854972   161A      0.858720  
     162A      0.862078   163A      0.865680   164A      0.880457  
     165A      0.882063   166A      0.885392   167A      0.894041  
     168A      0.904746   169A      0.905584   170A      0.915780  
     171A      0.921512   172A      0.931981   173A      0.940786  
     174A      0.949823   175A      0.958356   176A      0.958667  
     177A      0.972132   178A      0.976704   179A      0.980596  
     180A      0.985257   181A      0.989903   182A      0.998804  
     183A      1.006319   184A      1.013113   185A      1.018962  
     186A      1.024318   187A      1.032488   188A      1.044642  
     189A      1.053208   190A      1.065407   191A      1.073462  
     192A      1.080829   193A      1.084503   194A      1.090071  
     195A      1.092960   196A      1.105100   197A      1.114070  
     198A      1.133812   199A      1.148238   200A      1.161869  
     201A      1.165822   202A      1.173648   203A      1.178293  
     204A      1.188176   205A      1.194273   206A      1.204429  
     207A      1.219680   208A      1.224189   209A      1.234933  
     210A      1.236290   211A      1.252187   212A      1.253929  
     213A      1.275748   214A      1.281230   215A      1.309252  
     216A      1.311565   217A      1.321511   218A      1.332020  
     219A      1.336461   220A      1.341039   221A      1.344701  
     222A      1.364334   223A      1.381711   224A      1.384255  
     225A      1.400013   226A      1.415573   227A      1.425288  
     228A      1.437454   229A      1.447806   230A      1.450056  
     231A      1.468868   232A      1.473286   233A      1.484443  
     234A      1.489788   235A      1.495869   236A      1.504772  
     237A      1.527304   238A      1.550537   239A      1.553330  
     240A      1.571331   241A      1.583413   242A      1.588712  
     243A      1.609604   244A      1.618672   245A      1.636760  
     246A      1.659223   247A      1.663643   248A      1.667583  
     249A      1.677452   250A      1.708454   251A      1.718348  
     252A      1.734228   253A      1.753223   254A      1.775942  
     255A      1.795115   256A      1.805634   257A      1.809362  
     258A      1.819086   259A      1.862723   260A      1.871962  
     261A      1.886927   262A      1.897620   263A      1.901731  
     264A      1.919413   265A      1.939818   266A      1.954568  
     267A      1.973909   268A      1.988735   269A      2.002983  
     270A      2.042253   271A      2.045638   272A      2.071223  
     273A      2.081417   274A      2.084260   275A      2.094312  
     276A      2.104947   277A      2.124945   278A      2.133634  
     279A      2.155735   280A      2.180278   281A      2.188722  
     282A      2.193762   283A      2.206655   284A      2.222166  
     285A      2.228740   286A      2.241033   287A      2.245529  
     288A      2.253543   289A      2.257961   290A      2.265552  
     291A      2.271249   292A      2.275797   293A      2.289136  
     294A      2.295677   295A      2.307092   296A      2.313204  
     297A      2.327571   298A      2.330600   299A      2.340617  
     300A      2.349745   301A      2.354357   302A      2.368522  
     303A      2.378960   304A      2.385504   305A      2.386814  
     306A      2.404938   307A      2.414143   308A      2.419819  
     309A      2.433933   310A      2.443398   311A      2.464599  
     312A      2.466423   313A      2.505925   314A      2.519086  
     315A      2.541577   316A      2.565435   317A      2.577246  
     318A      2.585913   319A      2.600515   320A      2.605672  
     321A      2.613681   322A      2.623464   323A      2.637540  
     324A      2.650235   325A      2.662105   326A      2.671811  
     327A      2.683072   328A      2.713710   329A      2.746508  
     330A      2.760080   331A      2.762648   332A      2.795101  
     333A      2.806700   334A      2.817761   335A      2.829060  
     336A      2.841365   337A      2.851164   338A      2.860915  
     339A      2.883832   340A      2.893897   341A      2.894522  
     342A      2.919843   343A      2.930942   344A      2.963154  
     345A      2.982724   346A      2.998651   347A      3.022047  
     348A      3.032860   349A      3.041233   350A      3.067426  
     351A      3.075914   352A      3.100879   353A      3.134149  
     354A      3.148076   355A      3.179792   356A      3.187374  
     357A      3.252200   358A      3.271622   359A      3.276802  
     360A      3.284743   361A      3.292207   362A      3.317170  
     363A      3.326315   364A      3.365746   365A      3.368923  
     366A      3.433013   367A      3.444805   368A      3.455832  
     369A      3.466195   370A      3.471017   371A      3.502381  
     372A      3.513098   373A      3.551970   374A      3.562138  
     375A      3.591439   376A      3.603367   377A      3.652340  
     378A      3.681878   379A      3.710641   380A      3.726838  
     381A      3.779057   382A      3.803317   383A      3.813863  
     384A      3.874358   385A      3.908673   386A      3.915636  
     387A      3.988613   388A      4.010468   389A      4.022967  
     390A      4.059438   391A      4.068245   392A      4.146404  
     393A      4.188258   394A      4.244866   395A      4.321254  
     396A      4.336289   397A      4.374753   398A      4.387688  
     399A      4.469569   400A      4.528535   401A      4.539764  
     402A      4.607926   403A      4.653230   404A      4.669527  
     405A      4.725805   406A      4.791108   407A      4.837927  
     408A      4.905951   409A      4.941130   410A      4.994621  
     411A      5.026830   412A      5.048391   413A      5.054472  
     414A      5.066793   415A      5.072985   416A      5.084859  
     417A      5.091216   418A      5.102492   419A      5.130083  
     420A      5.216232   421A      5.263992   422A      5.292534  
     423A      5.322836   424A      5.384796   425A      5.411548  
     426A      5.427672   427A      5.475496   428A      5.533768  
     429A      5.635145   430A      5.835163   431A      5.977743  
     432A      6.033268   433A      6.055233   434A      6.119028  
     435A      6.155225   436A      6.172942   437A      6.449433  
     438A      6.505508   439A      6.816890   440A      6.828791  
     441A      6.866507   442A      6.871701   443A      6.885485  
     444A      6.913674   445A      6.937101   446A      6.951982  
     447A      6.977896   448A      6.992648   449A      7.033838  
     450A      7.049908   451A      7.123204   452A      7.786451  
     453A      7.932584   454A      7.990234   455A      8.109027  
     456A      8.141228   457A      8.256046   458A     18.009991  
     459A     18.423528   460A     18.569888   461A     18.626456  
     462A     18.795281   463A     18.892937   464A     19.156898  
     465A     19.362599   466A     19.650478   467A     20.621340  
     468A     20.753668   469A     20.894157   470A     21.436485  
     471A     25.494676   472A     33.549383   473A     33.557128  
     474A     43.018425   475A     43.022494   476A    138.006220  

    Final Occupation by Irrep:
              A 
    DOCC [     5 ]

  @DF-RKS Final Energy:   -76.41977753691883

   => Energetics <=

    Nuclear Repulsion Energy =              9.1676800421832514
    One-Electron Energy =                -122.9509155009722718
    Two-Electron Energy =                  43.8363931922121068
    DFT Exchange-Correlation Energy =      -6.4729044548536105
    Empirical Dispersion Energy =          -0.0000308154882910
    VV10 Nonlocal Energy =                  0.0000000000000000
    Total Energy =                        -76.4197775369188008

Computation Completed


Properties will be evaluated at  -0.000000,   0.000000,   0.000000 [a0]

Properties computed using the SCF density matrix

  Nuclear Dipole Moment: [e a0]
     X:   -48.3380      Y:     4.7169      Z:   -47.0578

  Electronic Dipole Moment: [e a0]
     X:    47.8530      Y:    -4.2196      Z:    46.8634

  Dipole Moment: [e a0]
     X:    -0.4850      Y:     0.4973      Z:    -0.1944     Total:     0.7213

  Dipole Moment: [D]
     X:    -1.2327      Y:     1.2639      Z:    -0.4940     Total:     1.8333


*** tstop() called on cpu-spot-dy-c5n2xlarge-1 at Tue Jun 22 17:04:33 2021
Module time:
	user time   =     572.00 seconds =       9.53 minutes
	system time =       6.83 seconds =       0.11 minutes
	total time  =         79 seconds =       1.32 minutes
Total time:
	user time   =     580.17 seconds =       9.67 minutes
	system time =       7.11 seconds =       0.12 minutes
	total time  =         80 seconds =       1.33 minutes

       N-Body: Complex Energy (fragments = (2,), basis = (1, 2):   -76.41977753691883)

       N-Body: Computing complex (3/4) with fragments (1,) in the basis of fragments (1, 2).


*** tstart() called on cpu-spot-dy-c5n2xlarge-1
*** at Tue Jun 22 17:04:33 2021

   => Loading Basis Set <=

    Name: AUG-CC-PVDZ
    Role: ORBITAL
    Keyword: BASIS
    atoms 1             entry N          line   214 file /fsx/users/francis/anaconda3/envs/poltype-dev/share/psi4/basis/aug-cc-pvdz.gbs 
    atoms 2-3, 6-12, 14 entry C          line   178 file /fsx/users/francis/anaconda3/envs/poltype-dev/share/psi4/basis/aug-cc-pvdz.gbs 
    atoms 4-5           entry F          line   286 file /fsx/users/francis/anaconda3/envs/poltype-dev/share/psi4/basis/aug-cc-pvdz.gbs 
    atoms 13            entry S          line   698 file /fsx/users/francis/anaconda3/envs/poltype-dev/share/psi4/basis/aug-cc-pvdz.gbs 
    atoms 15-16, 24     entry O          line   250 file /fsx/users/francis/anaconda3/envs/poltype-dev/share/psi4/basis/aug-cc-pvdz.gbs 
    atoms 17-23, 25-26  entry H          line    36 file /fsx/users/francis/anaconda3/envs/poltype-dev/share/psi4/basis/aug-cc-pvdz.gbs 


         ---------------------------------------------------------
                                   SCF
               by Justin Turney, Rob Parrish, Andy Simmonett
                          and Daniel G. A. Smith
                              RKS Reference
                        8 Threads,  15258 MiB Core
         ---------------------------------------------------------

  ==> Geometry <==

    Molecular point group: c1
    Full point group: C1

    Geometry (in Angstrom), charge = 0, multiplicity = 1:

       Center              X                  Y                   Z               Mass       
    ------------   -----------------  -----------------  -----------------  -----------------
         N           -0.738222155156    -1.516416912281     0.266295624596    14.003074004430
         C           -2.003461155156    -1.265702912281     0.730845624596    12.000000000000
         C           -2.301243155156     0.222475087719     1.106844624596    12.000000000000
         F           -3.585192155156     0.527953087719     0.689487624596    18.998403162730
         F           -2.278516155156     0.311264087719     2.480100624596    18.998403162730
         C           -1.311503155156     1.299832087719     0.538555624596    12.000000000000
         C            0.008759844844     0.819127087719     0.066888624596    12.000000000000
         C            0.993418844844     1.738703087719    -0.355344375404    12.000000000000
         C            2.250143844844     1.299266087719    -0.789950375404    12.000000000000
         C            2.543148844844    -0.088202912281    -0.835264375404    12.000000000000
         C            1.542434844844    -1.012095912281    -0.464431375404    12.000000000000
         C            0.278629844844    -0.575555912281    -0.030750375404    12.000000000000
         S            4.097668844844    -0.756773912281    -1.348453375404    31.972071174400
         C            5.130999844844    -0.603571912281     0.130125624596    12.000000000000
         O           -2.805182155156    -2.177757912281     0.882737624596    15.994914619570
         O           -1.600979155156     2.494207087719     0.565550624596    15.994914619570
         H            2.991655844844     2.043079087719    -1.080113375404     1.007825032230
         H            0.754668844844     2.802071087719    -0.321727375404     1.007825032230
         H           -0.585777155156    -2.497076912281     0.076206624596     1.007825032230
         H            1.756864844844    -2.081122912281    -0.501920375404     1.007825032230
         H            5.355212844844     0.452940087719     0.305842624596     1.007825032230
         H            4.597805844844    -1.016513912281     0.992206624596     1.007825032230
         H            6.061262844844    -1.157474912281    -0.026396375404     1.007825032230
      Gh(O)          -2.482025755156     0.171873087719    -2.459773775404    15.994914619570
      Gh(H)          -3.406179755156     0.191887087719    -2.200282775404     1.007825032230
      Gh(H)          -2.316984755156     0.929199087719    -3.023421775404     1.007825032230

  Running in c1 symmetry.

  Rotational constants: A =      0.02600  B =      0.00744  C =      0.00710 [cm^-1]
  Rotational constants: A =    779.49450  B =    223.06781  C =    212.84784 [MHz]
  Nuclear repulsion = 1178.105340247073173

  Charge       = 0
  Multiplicity = 1
  Electrons    = 124
  Nalpha       = 62
  Nbeta        = 62

  ==> Algorithm <==

  SCF Algorithm Type is DF.
  DIIS enabled.
  MOM disabled.
  Fractional occupation disabled.
  Guess Type is SAD.
  Energy threshold   = 1.00e-06
  Density threshold  = 1.00e-06
  Integral threshold = 0.00e+00

  ==> Primary Basis <==

  Basis Set: AUG-CC-PVDZ
    Blend: AUG-CC-PVDZ
    Number of shells: 200
    Number of basis function: 476
    Number of Cartesian functions: 510
    Spherical Harmonics?: true
    Max angular momentum: 2

  ==> DFT Potential <==

   => Composite Functional: WB97X-D <= 

    wB97X-D Hyb-GGA Exchange-Correlation Functional

    J.-D. Chai and M. Head-Gordon, Phys. Chem. Chem. Phys. 10, 6615 (2008)

    Deriv               =              1
    GGA                 =           TRUE
    Meta                =          FALSE

    Exchange Hybrid     =           TRUE
    MP2 Hybrid          =          FALSE

   => Exchange-Correlation Functionals <=

    1.0000   wB97D range-separated functional

   => Exact (HF) Exchange <=

    0.7780            HF,LR [omega = 0.2000]
    0.2220               HF 

   => Molecular Quadrature <=

    Radial Scheme          =       TREUTLER
    Pruning Scheme         =           FLAT
    Nuclear Scheme         =       TREUTLER

    BS radius alpha        =              1
    Pruning alpha          =              1
    Radial Points          =             75
    Spherical Points       =            302
    Total Points           =         588900
    Total Blocks           =           4353
    Max Points             =            256
    Max Functions          =            426

   => WB97X-D: Empirical Dispersion <=

    Chai and Head-Gordon Dispersion Correction
    Chai, J.-D.; Head-Gordon, M. (2010), J. Chem. Phys., 132: 6615-6620

        s6 =       1.000000

   => Loading Basis Set <=

    Name: (AUG-CC-PVDZ AUX)
    Role: JKFIT
    Keyword: DF_BASIS_SCF
    atoms 1             entry N          line   212 file /fsx/users/francis/anaconda3/envs/poltype-dev/share/psi4/basis/aug-cc-pvdz-jkfit.gbs 
    atoms 2-3, 6-12, 14 entry C          line   154 file /fsx/users/francis/anaconda3/envs/poltype-dev/share/psi4/basis/aug-cc-pvdz-jkfit.gbs 
    atoms 4-5           entry F          line   328 file /fsx/users/francis/anaconda3/envs/poltype-dev/share/psi4/basis/aug-cc-pvdz-jkfit.gbs 
    atoms 13            entry S          line   690 file /fsx/users/francis/anaconda3/envs/poltype-dev/share/psi4/basis/aug-cc-pvdz-jkfit.gbs 
    atoms 15-16, 24     entry O          line   270 file /fsx/users/francis/anaconda3/envs/poltype-dev/share/psi4/basis/aug-cc-pvdz-jkfit.gbs 
    atoms 17-23, 25-26  entry H          line    70 file /fsx/users/francis/anaconda3/envs/poltype-dev/share/psi4/basis/aug-cc-pvdz-jkfit.gbs 

  ==> Pre-Iterations <==

   -------------------------------------------------------
    Irrep   Nso     Nmo     Nalpha   Nbeta   Ndocc  Nsocc
   -------------------------------------------------------
     A        476     476       0       0       0       0
   -------------------------------------------------------
    Total     476     476      62      62      62       0
   -------------------------------------------------------

  ==> Integral Setup <==

  ==> DiskDFJK: Density-Fitted J/K Matrices <==

    J tasked:                  Yes
    K tasked:                  Yes
    wK tasked:                 Yes
    Omega:               2.000E-01
    OpenMP threads:              8
    Integrals threads:           8
    Memory [MiB]:             5910
    Algorithm:                Core
    Integral Cache:           NONE
    Schwarz Cutoff:          1E-12
    Fitting Condition:       1E-10

   => Auxiliary Basis Set <=

  Basis Set: (AUG-CC-PVDZ AUX)
    Blend: AUG-CC-PVDZ-JKFIT
    Number of shells: 596
    Number of basis function: 1792
    Number of Cartesian functions: 2081
    Spherical Harmonics?: true
    Max angular momentum: 3

  Cached 100.0% of DFT collocation blocks in 5.404 [GiB].

  Minimum eigenvalue in the overlap matrix is 1.3802530995E-06.
  Using Symmetric Orthogonalization.

  SCF Guess: Superposition of Atomic Densities via on-the-fly atomic UHF.

  ==> Iterations <==

                           Total Energy        Delta E     RMS |[F,P]|

   @DF-RKS iter SAD: -1187.39107291828191   -1.18739e+03   0.00000e+00 
   @DF-RKS iter   1: -1187.69074221513870   -2.99669e-01   2.21275e-03 DIIS
   @DF-RKS iter   2: -1187.69885721368041   -8.11500e-03   2.40477e-03 DIIS
   @DF-RKS iter   3: -1188.17484866473956   -4.75991e-01   5.66604e-04 DIIS
   @DF-RKS iter   4: -1188.20311173969662   -2.82631e-02   1.48262e-04 DIIS
   @DF-RKS iter   5: -1188.20531123999899   -2.19950e-03   4.24204e-05 DIIS
   @DF-RKS iter   6: -1188.20553437212834   -2.23132e-04   1.44134e-05 DIIS
   @DF-RKS iter   7: -1188.20556050250161   -2.61304e-05   4.47079e-06 DIIS
   @DF-RKS iter   8: -1188.20556545482896   -4.95233e-06   1.64597e-06 DIIS
   @DF-RKS iter   9: -1188.20556666037669   -1.20555e-06   1.05564e-06 DIIS
   @DF-RKS iter  10: -1188.20556690564081   -2.45264e-07   3.76015e-07 DIIS
  Energy and wave function converged.


  ==> Post-Iterations <==

    Orbital Energies [Eh]
    ---------------------

    Doubly Occupied:                                                      

       1A    -89.069950     2A    -24.878954     3A    -24.868380  
       4A    -19.303963     5A    -19.288017     6A    -14.536933  
       7A    -10.509357     8A    -10.455489     9A    -10.436338  
      10A    -10.407989    11A    -10.379056    12A    -10.356741  
      13A    -10.352190    14A    -10.350212    15A    -10.345729  
      16A    -10.343888    17A     -8.087455    18A     -6.037328  
      19A     -6.033196    20A     -6.026231    21A     -1.384501  
      22A     -1.326771    23A     -1.190339    24A     -1.179973  
      25A     -1.094098    26A     -1.000654    27A     -0.938504  
      28A     -0.903664    29A     -0.888644    30A     -0.866733  
      31A     -0.792741    32A     -0.765844    33A     -0.752178  
      34A     -0.740153    35A     -0.695539    36A     -0.678237  
      37A     -0.668081    38A     -0.643658    39A     -0.628627  
      40A     -0.591018    41A     -0.579552    42A     -0.568239  
      43A     -0.563293    44A     -0.557308    45A     -0.554966  
      46A     -0.549698    47A     -0.538788    48A     -0.534006  
      49A     -0.527386    50A     -0.517004    51A     -0.511450  
      52A     -0.500789    53A     -0.494140    54A     -0.480118  
      55A     -0.474212    56A     -0.441330    57A     -0.420558  
      58A     -0.398039    59A     -0.371733    60A     -0.368338  
      61A     -0.340395    62A     -0.332529  

    Virtual:                                                              

      63A     -0.057280    64A      0.006663    65A      0.023611  
      66A      0.032207    67A      0.035913    68A      0.039596  
      69A      0.048373    70A      0.050295    71A      0.057911  
      72A      0.059972    73A      0.064923    74A      0.074838  
      75A      0.077167    76A      0.079854    77A      0.090189  
      78A      0.093276    79A      0.100024    80A      0.106000  
      81A      0.107523    82A      0.112620    83A      0.114842  
      84A      0.118331    85A      0.121535    86A      0.127017  
      87A      0.130014    88A      0.132432    89A      0.135634  
      90A      0.143653    91A      0.147946    92A      0.151228  
      93A      0.152743    94A      0.157658    95A      0.162721  
      96A      0.165041    97A      0.167452    98A      0.169382  
      99A      0.174893   100A      0.178099   101A      0.179151  
     102A      0.181577   103A      0.186926   104A      0.192054  
     105A      0.198732   106A      0.202137   107A      0.205910  
     108A      0.208773   109A      0.214320   110A      0.215739  
     111A      0.221503   112A      0.226403   113A      0.230985  
     114A      0.232924   115A      0.236412   116A      0.238942  
     117A      0.241944   118A      0.250297   119A      0.252094  
     120A      0.256281   121A      0.261162   122A      0.263566  
     123A      0.267538   124A      0.273485   125A      0.274901  
     126A      0.277970   127A      0.280150   128A      0.281914  
     129A      0.286835   130A      0.288891   131A      0.292666  
     132A      0.299341   133A      0.304908   134A      0.308233  
     135A      0.310731   136A      0.319323   137A      0.321774  
     138A      0.327144   139A      0.331615   140A      0.334886  
     141A      0.341029   142A      0.344005   143A      0.347612  
     144A      0.349164   145A      0.354580   146A      0.357997  
     147A      0.366962   148A      0.368085   149A      0.372405  
     150A      0.373558   151A      0.378820   152A      0.384268  
     153A      0.385958   154A      0.387541   155A      0.397490  
     156A      0.398934   157A      0.409512   158A      0.410464  
     159A      0.413178   160A      0.418632   161A      0.421555  
     162A      0.429891   163A      0.436156   164A      0.437674  
     165A      0.439656   166A      0.444191   167A      0.452907  
     168A      0.463661   169A      0.468914   170A      0.474854  
     171A      0.478291   172A      0.483802   173A      0.488288  
     174A      0.492208   175A      0.494444   176A      0.500278  
     177A      0.502398   178A      0.505658   179A      0.511692  
     180A      0.519796   181A      0.522567   182A      0.529809  
     183A      0.531167   184A      0.537974   185A      0.539518  
     186A      0.545291   187A      0.549167   188A      0.558819  
     189A      0.563375   190A      0.568659   191A      0.574247  
     192A      0.577551   193A      0.585847   194A      0.588145  
     195A      0.595813   196A      0.600527   197A      0.604508  
     198A      0.613277   199A      0.616018   200A      0.625316  
     201A      0.628158   202A      0.633860   203A      0.635591  
     204A      0.637530   205A      0.644896   206A      0.646743  
     207A      0.649734   208A      0.657055   209A      0.660876  
     210A      0.665669   211A      0.676330   212A      0.678390  
     213A      0.678939   214A      0.680707   215A      0.688140  
     216A      0.692924   217A      0.699278   218A      0.702456  
     219A      0.707916   220A      0.710198   221A      0.715790  
     222A      0.725774   223A      0.733707   224A      0.742491  
     225A      0.756083   226A      0.760224   227A      0.762144  
     228A      0.767759   229A      0.769161   230A      0.783622  
     231A      0.790912   232A      0.794558   233A      0.802371  
     234A      0.807163   235A      0.813251   236A      0.817764  
     237A      0.832291   238A      0.834577   239A      0.837603  
     240A      0.839834   241A      0.847832   242A      0.853530  
     243A      0.856848   244A      0.866797   245A      0.875084  
     246A      0.883306   247A      0.896900   248A      0.903376  
     249A      0.905175   250A      0.921955   251A      0.926070  
     252A      0.934338   253A      0.944977   254A      0.951717  
     255A      0.953525   256A      0.962289   257A      0.976456  
     258A      0.984455   259A      0.994894   260A      1.005187  
     261A      1.007777   262A      1.020619   263A      1.026551  
     264A      1.035386   265A      1.046452   266A      1.055071  
     267A      1.069719   268A      1.074590   269A      1.083664  
     270A      1.091259   271A      1.101539   272A      1.113139  
     273A      1.122824   274A      1.124730   275A      1.140145  
     276A      1.147706   277A      1.152056   278A      1.160190  
     279A      1.169615   280A      1.183717   281A      1.192261  
     282A      1.203073   283A      1.211207   284A      1.219442  
     285A      1.226407   286A      1.239043   287A      1.248249  
     288A      1.253005   289A      1.261021   290A      1.275675  
     291A      1.277889   292A      1.298381   293A      1.303851  
     294A      1.306212   295A      1.309999   296A      1.322869  
     297A      1.336674   298A      1.342438   299A      1.347460  
     300A      1.355934   301A      1.358989   302A      1.361462  
     303A      1.374841   304A      1.384409   305A      1.392246  
     306A      1.404518   307A      1.410635   308A      1.424299  
     309A      1.425327   310A      1.431302   311A      1.439164  
     312A      1.459195   313A      1.468476   314A      1.476545  
     315A      1.484632   316A      1.495316   317A      1.497550  
     318A      1.506605   319A      1.524022   320A      1.541505  
     321A      1.545581   322A      1.547709   323A      1.557942  
     324A      1.565242   325A      1.570237   326A      1.585289  
     327A      1.589673   328A      1.600200   329A      1.602036  
     330A      1.610681   331A      1.620355   332A      1.623349  
     333A      1.634732   334A      1.648393   335A      1.651736  
     336A      1.661122   337A      1.672349   338A      1.678971  
     339A      1.690723   340A      1.695830   341A      1.707385  
     342A      1.709624   343A      1.720591   344A      1.736773  
     345A      1.747093   346A      1.751536   347A      1.764306  
     348A      1.768387   349A      1.782012   350A      1.793396  
     351A      1.798050   352A      1.819450   353A      1.826237  
     354A      1.829729   355A      1.844646   356A      1.858981  
     357A      1.866657   358A      1.877910   359A      1.888016  
     360A      1.891051   361A      1.896812   362A      1.917823  
     363A      1.927875   364A      1.936439   365A      1.945693  
     366A      1.951354   367A      1.963097   368A      1.969739  
     369A      1.985970   370A      1.996199   371A      1.998076  
     372A      2.000564   373A      2.022177   374A      2.025040  
     375A      2.042691   376A      2.054029   377A      2.065435  
     378A      2.078370   379A      2.087838   380A      2.097535  
     381A      2.102193   382A      2.122090   383A      2.134472  
     384A      2.138495   385A      2.146548   386A      2.164452  
     387A      2.175249   388A      2.188348   389A      2.204951  
     390A      2.208417   391A      2.222631   392A      2.235338  
     393A      2.249876   394A      2.276094   395A      2.291831  
     396A      2.308347   397A      2.315422   398A      2.327834  
     399A      2.337032   400A      2.344079   401A      2.349466  
     402A      2.357519   403A      2.367277   404A      2.387355  
     405A      2.413550   406A      2.419740   407A      2.445456  
     408A      2.482865   409A      2.501776   410A      2.526015  
     411A      2.535328   412A      2.547579   413A      2.553541  
     414A      2.579086   415A      2.597892   416A      2.607972  
     417A      2.617806   418A      2.647231   419A      2.667431  
     420A      2.676142   421A      2.689790   422A      2.700040  
     423A      2.711785   424A      2.733662   425A      2.749266  
     426A      2.778376   427A      2.820901   428A      2.858834  
     429A      2.957302   430A      2.975060   431A      3.024050  
     432A      3.036839   433A      3.109670   434A      3.164855  
     435A      3.178615   436A      3.375586   437A      3.388367  
     438A      3.397982   439A      3.442516   440A      3.464309  
     441A      3.481503   442A      3.499989   443A      3.508244  
     444A      3.525008   445A      3.553212   446A      3.565515  
     447A      3.569038   448A      3.611383   449A      3.700254  
     450A      3.710097   451A      3.765305   452A      3.847199  
     453A      3.875701   454A      3.987935   455A      4.043740  
     456A      4.115924   457A      4.470547   458A      4.625459  
     459A      4.672219   460A      4.694698   461A      4.726213  
     462A      4.748550   463A      4.755093   464A      4.789363  
     465A      4.820955   466A      4.858268   467A      4.902929  
     468A      4.985275   469A      5.029845   470A      5.043863  
     471A      5.209480   472A      5.441459   473A      5.744166  
     474A      6.606053   475A      7.086608   476A     33.573787  

    Final Occupation by Irrep:
              A 
    DOCC [    62 ]

  @DF-RKS Final Energy: -1188.20556690564081

   => Energetics <=

    Nuclear Repulsion Energy =           1178.1053402470731726
    One-Electron Energy =               -3970.6416201809943232
    Two-Electron Energy =                1693.8826435933947323
    DFT Exchange-Correlation Energy =     -89.5384814238114757
    Empirical Dispersion Energy =          -0.0134491413032513
    VV10 Nonlocal Energy =                  0.0000000000000000
    Total Energy =                      -1188.2055669056408078

Computation Completed


Properties will be evaluated at  -0.000000,   0.000000,   0.000000 [a0]

Properties computed using the SCF density matrix

  Nuclear Dipole Moment: [e a0]
     X:    68.2043      Y:    -5.8340      Z:    38.6083

  Electronic Dipole Moment: [e a0]
     X:   -65.6481      Y:     5.4050      Z:   -38.9360

  Dipole Moment: [e a0]
     X:     2.5562      Y:    -0.4290      Z:    -0.3277     Total:     2.6126

  Dipole Moment: [D]
     X:     6.4972      Y:    -1.0904      Z:    -0.8329     Total:     6.6405


*** tstop() called on cpu-spot-dy-c5n2xlarge-1 at Tue Jun 22 17:06:35 2021
Module time:
	user time   =     906.38 seconds =      15.11 minutes
	system time =       8.83 seconds =       0.15 minutes
	total time  =        122 seconds =       2.03 minutes
Total time:
	user time   =    1486.59 seconds =      24.78 minutes
	system time =      15.94 seconds =       0.27 minutes
	total time  =        202 seconds =       3.37 minutes

       N-Body: Complex Energy (fragments = (1,), basis = (1, 2): -1188.20556690564081)

       N-Body: Computing complex (4/4) with fragments (1,) in the basis of fragments (1,).


*** tstart() called on cpu-spot-dy-c5n2xlarge-1
*** at Tue Jun 22 17:06:35 2021

   => Loading Basis Set <=

    Name: AUG-CC-PVDZ
    Role: ORBITAL
    Keyword: BASIS
    atoms 1             entry N          line   214 file /fsx/users/francis/anaconda3/envs/poltype-dev/share/psi4/basis/aug-cc-pvdz.gbs 
    atoms 2-3, 6-12, 14 entry C          line   178 file /fsx/users/francis/anaconda3/envs/poltype-dev/share/psi4/basis/aug-cc-pvdz.gbs 
    atoms 4-5           entry F          line   286 file /fsx/users/francis/anaconda3/envs/poltype-dev/share/psi4/basis/aug-cc-pvdz.gbs 
    atoms 13            entry S          line   698 file /fsx/users/francis/anaconda3/envs/poltype-dev/share/psi4/basis/aug-cc-pvdz.gbs 
    atoms 15-16         entry O          line   250 file /fsx/users/francis/anaconda3/envs/poltype-dev/share/psi4/basis/aug-cc-pvdz.gbs 
    atoms 17-23         entry H          line    36 file /fsx/users/francis/anaconda3/envs/poltype-dev/share/psi4/basis/aug-cc-pvdz.gbs 


         ---------------------------------------------------------
                                   SCF
               by Justin Turney, Rob Parrish, Andy Simmonett
                          and Daniel G. A. Smith
                              RKS Reference
                        8 Threads,  15258 MiB Core
         ---------------------------------------------------------

  ==> Geometry <==

    Molecular point group: c1
    Full point group: C1

    Geometry (in Angstrom), charge = 0, multiplicity = 1:

       Center              X                  Y                   Z               Mass       
    ------------   -----------------  -----------------  -----------------  -----------------
         N           -0.738222155156    -1.516416912281     0.266295624596    14.003074004430
         C           -2.003461155156    -1.265702912281     0.730845624596    12.000000000000
         C           -2.301243155156     0.222475087719     1.106844624596    12.000000000000
         F           -3.585192155156     0.527953087719     0.689487624596    18.998403162730
         F           -2.278516155156     0.311264087719     2.480100624596    18.998403162730
         C           -1.311503155156     1.299832087719     0.538555624596    12.000000000000
         C            0.008759844844     0.819127087719     0.066888624596    12.000000000000
         C            0.993418844844     1.738703087719    -0.355344375404    12.000000000000
         C            2.250143844844     1.299266087719    -0.789950375404    12.000000000000
         C            2.543148844844    -0.088202912281    -0.835264375404    12.000000000000
         C            1.542434844844    -1.012095912281    -0.464431375404    12.000000000000
         C            0.278629844844    -0.575555912281    -0.030750375404    12.000000000000
         S            4.097668844844    -0.756773912281    -1.348453375404    31.972071174400
         C            5.130999844844    -0.603571912281     0.130125624596    12.000000000000
         O           -2.805182155156    -2.177757912281     0.882737624596    15.994914619570
         O           -1.600979155156     2.494207087719     0.565550624596    15.994914619570
         H            2.991655844844     2.043079087719    -1.080113375404     1.007825032230
         H            0.754668844844     2.802071087719    -0.321727375404     1.007825032230
         H           -0.585777155156    -2.497076912281     0.076206624596     1.007825032230
         H            1.756864844844    -2.081122912281    -0.501920375404     1.007825032230
         H            5.355212844844     0.452940087719     0.305842624596     1.007825032230
         H            4.597805844844    -1.016513912281     0.992206624596     1.007825032230
         H            6.061262844844    -1.157474912281    -0.026396375404     1.007825032230

  Running in c1 symmetry.

  Rotational constants: A =      0.03505  B =      0.00827  C =      0.00729 [cm^-1]
  Rotational constants: A =   1050.90793  B =    247.78939  C =    218.58285 [MHz]
  Nuclear repulsion = 1178.105340247073173

  Charge       = 0
  Multiplicity = 1
  Electrons    = 124
  Nalpha       = 62
  Nbeta        = 62

  ==> Algorithm <==

  SCF Algorithm Type is DF.
  DIIS enabled.
  MOM disabled.
  Fractional occupation disabled.
  Guess Type is SAD.
  Energy threshold   = 1.00e-06
  Density threshold  = 1.00e-06
  Integral threshold = 0.00e+00

  ==> Primary Basis <==

  Basis Set: AUG-CC-PVDZ
    Blend: AUG-CC-PVDZ
    Number of shells: 181
    Number of basis function: 435
    Number of Cartesian functions: 467
    Spherical Harmonics?: true
    Max angular momentum: 2

  ==> DFT Potential <==

   => Composite Functional: WB97X-D <= 

    wB97X-D Hyb-GGA Exchange-Correlation Functional

    J.-D. Chai and M. Head-Gordon, Phys. Chem. Chem. Phys. 10, 6615 (2008)

    Deriv               =              1
    GGA                 =           TRUE
    Meta                =          FALSE

    Exchange Hybrid     =           TRUE
    MP2 Hybrid          =          FALSE

   => Exchange-Correlation Functionals <=

    1.0000   wB97D range-separated functional

   => Exact (HF) Exchange <=

    0.7780            HF,LR [omega = 0.2000]
    0.2220               HF 

   => Molecular Quadrature <=

    Radial Scheme          =       TREUTLER
    Pruning Scheme         =           FLAT
    Nuclear Scheme         =       TREUTLER

    BS radius alpha        =              1
    Pruning alpha          =              1
    Radial Points          =             75
    Spherical Points       =            302
    Total Points           =         520950
    Total Blocks           =           3838
    Max Points             =            256
    Max Functions          =            395

   => WB97X-D: Empirical Dispersion <=

    Chai and Head-Gordon Dispersion Correction
    Chai, J.-D.; Head-Gordon, M. (2010), J. Chem. Phys., 132: 6615-6620

        s6 =       1.000000

   => Loading Basis Set <=

    Name: (AUG-CC-PVDZ AUX)
    Role: JKFIT
    Keyword: DF_BASIS_SCF
    atoms 1             entry N          line   212 file /fsx/users/francis/anaconda3/envs/poltype-dev/share/psi4/basis/aug-cc-pvdz-jkfit.gbs 
    atoms 2-3, 6-12, 14 entry C          line   154 file /fsx/users/francis/anaconda3/envs/poltype-dev/share/psi4/basis/aug-cc-pvdz-jkfit.gbs 
    atoms 4-5           entry F          line   328 file /fsx/users/francis/anaconda3/envs/poltype-dev/share/psi4/basis/aug-cc-pvdz-jkfit.gbs 
    atoms 13            entry S          line   690 file /fsx/users/francis/anaconda3/envs/poltype-dev/share/psi4/basis/aug-cc-pvdz-jkfit.gbs 
    atoms 15-16         entry O          line   270 file /fsx/users/francis/anaconda3/envs/poltype-dev/share/psi4/basis/aug-cc-pvdz-jkfit.gbs 
    atoms 17-23         entry H          line    70 file /fsx/users/francis/anaconda3/envs/poltype-dev/share/psi4/basis/aug-cc-pvdz-jkfit.gbs 

  ==> Pre-Iterations <==

   -------------------------------------------------------
    Irrep   Nso     Nmo     Nalpha   Nbeta   Ndocc  Nsocc
   -------------------------------------------------------
     A        435     435       0       0       0       0
   -------------------------------------------------------
    Total     435     435      62      62      62       0
   -------------------------------------------------------

  ==> Integral Setup <==

  ==> DiskDFJK: Density-Fitted J/K Matrices <==

    J tasked:                  Yes
    K tasked:                  Yes
    wK tasked:                 Yes
    Omega:               2.000E-01
    OpenMP threads:              8
    Integrals threads:           8
    Memory [MiB]:             6790
    Algorithm:                Core
    Integral Cache:           NONE
    Schwarz Cutoff:          1E-12
    Fitting Condition:       1E-10

   => Auxiliary Basis Set <=

  Basis Set: (AUG-CC-PVDZ AUX)
    Blend: AUG-CC-PVDZ-JKFIT
    Number of shells: 544
    Number of basis function: 1642
    Number of Cartesian functions: 1910
    Spherical Harmonics?: true
    Max angular momentum: 3

  Cached 100.0% of DFT collocation blocks in 4.545 [GiB].

  Minimum eigenvalue in the overlap matrix is 1.4648872092E-06.
  Using Symmetric Orthogonalization.

  SCF Guess: Superposition of Atomic Densities via on-the-fly atomic UHF.

  ==> Iterations <==

                           Total Energy        Delta E     RMS |[F,P]|

   @DF-RKS iter SAD: -1187.39120746757521   -1.18739e+03   0.00000e+00 
   @DF-RKS iter   1: -1187.69038885313307   -2.99181e-01   2.42064e-03 DIIS
   @DF-RKS iter   2: -1187.69849003424679   -8.10118e-03   2.63125e-03 DIIS
   @DF-RKS iter   3: -1188.17457584384965   -4.76086e-01   6.19759e-04 DIIS
   @DF-RKS iter   4: -1188.20282513832922   -2.82493e-02   1.62120e-04 DIIS
   @DF-RKS iter   5: -1188.20502202612647   -2.19689e-03   4.64158e-05 DIIS
   @DF-RKS iter   6: -1188.20524517767194   -2.23152e-04   1.57684e-05 DIIS
   @DF-RKS iter   7: -1188.20527130578466   -2.61281e-05   4.89150e-06 DIIS
   @DF-RKS iter   8: -1188.20527626065450   -4.95487e-06   1.80172e-06 DIIS
   @DF-RKS iter   9: -1188.20527746768539   -1.20703e-06   1.15589e-06 DIIS
   @DF-RKS iter  10: -1188.20527771333059   -2.45645e-07   4.11494e-07 DIIS
  Energy and wave function converged.


  ==> Post-Iterations <==

    Orbital Energies [Eh]
    ---------------------

    Doubly Occupied:                                                      

       1A    -89.069951     2A    -24.878946     3A    -24.868362  
       4A    -19.303956     5A    -19.288023     6A    -14.536963  
       7A    -10.509440     8A    -10.455540     9A    -10.436379  
      10A    -10.408001    11A    -10.379103    12A    -10.356730  
      13A    -10.352227    14A    -10.350256    15A    -10.345749  
      16A    -10.343934    17A     -8.087469    18A     -6.037339  
      19A     -6.033211    20A     -6.026242    21A     -1.384555  
      22A     -1.326831    23A     -1.190382    24A     -1.180041  
      25A     -1.094149    26A     -1.000718    27A     -0.938556  
      28A     -0.903716    29A     -0.888701    30A     -0.866780  
      31A     -0.792787    32A     -0.765897    33A     -0.752231  
      34A     -0.740200    35A     -0.695597    36A     -0.678294  
      37A     -0.668139    38A     -0.643704    39A     -0.628686  
      40A     -0.591078    41A     -0.579605    42A     -0.568287  
      43A     -0.563334    44A     -0.557365    45A     -0.555015  
      46A     -0.549744    47A     -0.538824    48A     -0.534015  
      49A     -0.527423    50A     -0.517053    51A     -0.511491  
      52A     -0.500837    53A     -0.494192    54A     -0.480166  
      55A     -0.474275    56A     -0.441369    57A     -0.420590  
      58A     -0.398085    59A     -0.371783    60A     -0.368363  
      61A     -0.340427    62A     -0.332550  

    Virtual:                                                              

      63A     -0.057326    64A      0.006649    65A      0.023892  
      66A      0.032490    67A      0.036421    68A      0.041189  
      69A      0.048625    70A      0.057416    71A      0.058582  
      72A      0.064852    73A      0.072611    74A      0.077322  
      75A      0.082790    76A      0.090451    77A      0.093723  
      78A      0.101605    79A      0.105622    80A      0.110990  
      81A      0.111572    82A      0.115804    83A      0.119780  
      84A      0.123578    85A      0.129380    86A      0.133076  
      87A      0.136331    88A      0.139648    89A      0.146952  
      90A      0.150402    91A      0.154979    92A      0.158312  
      93A      0.159027    94A      0.165632    95A      0.168685  
      96A      0.172019    97A      0.174614    98A      0.174917  
      99A      0.180820   100A      0.181730   101A      0.188201  
     102A      0.192599   103A      0.198679   104A      0.204462  
     105A      0.209461   106A      0.212972   107A      0.215807  
     108A      0.221935   109A      0.226108   110A      0.229214  
     111A      0.232818   112A      0.236689   113A      0.239185  
     114A      0.246387   115A      0.248861   116A      0.252296  
     117A      0.258522   118A      0.260141   119A      0.263308  
     120A      0.268749   121A      0.272749   122A      0.278169  
     123A      0.279665   124A      0.281961   125A      0.287651  
     126A      0.294498   127A      0.297388   128A      0.302711  
     129A      0.306558   130A      0.309156   131A      0.310864  
     132A      0.321643   133A      0.324474   134A      0.327290  
     135A      0.328469   136A      0.336088   137A      0.340075  
     138A      0.343910   139A      0.347662   140A      0.352246  
     141A      0.360865   142A      0.363512   143A      0.367145  
     144A      0.373968   145A      0.375573   146A      0.379171  
     147A      0.382550   148A      0.385652   149A      0.388754  
     150A      0.390243   151A      0.402484   152A      0.407283  
     153A      0.411887   154A      0.414115   155A      0.416680  
     156A      0.419824   157A      0.431564   158A      0.435956  
     159A      0.440140   160A      0.442824   161A      0.450625  
     162A      0.461568   163A      0.465526   164A      0.473076  
     165A      0.479838   166A      0.485064   167A      0.487982  
     168A      0.490890   169A      0.497342   170A      0.504121  
     171A      0.512191   172A      0.515385   173A      0.522084  
     174A      0.531269   175A      0.533732   176A      0.540583  
     177A      0.542746   178A      0.547514   179A      0.551123  
     180A      0.563316   181A      0.567236   182A      0.577393  
     183A      0.581658   184A      0.589353   185A      0.595363  
     186A      0.601614   187A      0.604891   188A      0.614836  
     189A      0.618642   190A      0.621699   191A      0.628356  
     192A      0.635537   193A      0.636210   194A      0.640154  
     195A      0.643854   196A      0.652127   197A      0.657215  
     198A      0.663010   199A      0.667345   200A      0.673111  
     201A      0.675616   202A      0.680266   203A      0.687935  
     204A      0.693581   205A      0.698130   206A      0.703914  
     207A      0.708921   208A      0.718257   209A      0.727854  
     210A      0.733236   211A      0.743902   212A      0.751512  
     213A      0.752757   214A      0.754592   215A      0.764953  
     216A      0.770424   217A      0.773879   218A      0.781796  
     219A      0.790584   220A      0.795059   221A      0.802428  
     222A      0.805402   223A      0.813649   224A      0.820532  
     225A      0.827209   226A      0.836543   227A      0.837995  
     228A      0.842201   229A      0.850117   230A      0.854854  
     231A      0.868926   232A      0.872949   233A      0.882027  
     234A      0.891567   235A      0.901692   236A      0.915006  
     237A      0.921427   238A      0.929866   239A      0.941543  
     240A      0.948677   241A      0.951573   242A      0.970823  
     243A      0.972229   244A      0.987984   245A      0.995869  
     246A      1.000849   247A      1.013891   248A      1.028298  
     249A      1.036623   250A      1.044344   251A      1.057068  
     252A      1.066533   253A      1.072569   254A      1.084672  
     255A      1.097478   256A      1.099245   257A      1.107730  
     258A      1.114231   259A      1.132902   260A      1.140087  
     261A      1.146293   262A      1.147421   263A      1.159503  
     264A      1.179253   265A      1.191027   266A      1.195813  
     267A      1.215422   268A      1.218020   269A      1.226643  
     270A      1.243611   271A      1.260133   272A      1.271854  
     273A      1.275917   274A      1.285979   275A      1.291128  
     276A      1.298626   277A      1.315559   278A      1.319853  
     279A      1.337245   280A      1.347460   281A      1.356921  
     282A      1.359291   283A      1.364799   284A      1.386120  
     285A      1.388298   286A      1.408152   287A      1.412863  
     288A      1.422266   289A      1.432658   290A      1.443357  
     291A      1.458764   292A      1.469314   293A      1.472245  
     294A      1.485212   295A      1.497141   296A      1.503660  
     297A      1.522329   298A      1.532688   299A      1.541626  
     300A      1.548131   301A      1.554164   302A      1.562107  
     303A      1.564898   304A      1.581012   305A      1.583544  
     306A      1.591029   307A      1.605059   308A      1.607811  
     309A      1.610361   310A      1.619715   311A      1.628891  
     312A      1.636671   313A      1.647526   314A      1.653604  
     315A      1.667634   316A      1.672260   317A      1.685003  
     318A      1.691089   319A      1.697370   320A      1.715860  
     321A      1.729240   322A      1.732521   323A      1.735918  
     324A      1.752300   325A      1.756369   326A      1.765112  
     327A      1.780455   328A      1.791108   329A      1.807586  
     330A      1.817655   331A      1.822990   332A      1.837771  
     333A      1.844774   334A      1.862781   335A      1.874569  
     336A      1.883356   337A      1.886144   338A      1.894181  
     339A      1.911628   340A      1.917231   341A      1.929372  
     342A      1.931169   343A      1.947659   344A      1.959075  
     345A      1.964163   346A      1.970419   347A      1.984078  
     348A      1.993700   349A      1.998658   350A      2.018370  
     351A      2.022307   352A      2.036270   353A      2.051313  
     354A      2.061234   355A      2.076188   356A      2.084279  
     357A      2.093561   358A      2.094081   359A      2.122939  
     360A      2.131408   361A      2.138311   362A      2.155605  
     363A      2.169452   364A      2.171339   365A      2.199788  
     366A      2.203235   367A      2.217625   368A      2.225128  
     369A      2.236144   370A      2.269496   371A      2.285182  
     372A      2.304525   373A      2.310309   374A      2.324990  
     375A      2.334351   376A      2.341918   377A      2.352917  
     378A      2.364631   379A      2.385329   380A      2.405307  
     381A      2.411730   382A      2.443799   383A      2.477951  
     384A      2.496130   385A      2.515305   386A      2.542174  
     387A      2.566759   388A      2.597427   389A      2.612598  
     390A      2.642081   391A      2.662586   392A      2.665247  
     393A      2.685402   394A      2.694738   395A      2.710246  
     396A      2.728588   397A      2.748975   398A      2.775760  
     399A      2.852577   400A      2.945998   401A      2.959810  
     402A      3.013252   403A      3.025246   404A      3.095017  
     405A      3.125628   406A      3.162297   407A      3.354149  
     408A      3.379268   409A      3.387709   410A      3.429533  
     411A      3.458560   412A      3.469753   413A      3.485506  
     414A      3.502473   415A      3.535904   416A      3.551877  
     417A      3.561273   418A      3.598127   419A      3.682748  
     420A      3.703679   421A      3.759059   422A      3.831358  
     423A      3.858700   424A      3.970725   425A      4.456321  
     426A      4.623592   427A      4.664167   428A      4.688325  
     429A      4.722754   430A      4.746293   431A      4.751475  
     432A      4.777991   433A      4.818762   434A      4.850821  
     435A      4.900299  

    Final Occupation by Irrep:
              A 
    DOCC [    62 ]

  @DF-RKS Final Energy: -1188.20527771333059

   => Energetics <=

    Nuclear Repulsion Energy =           1178.1053402470731726
    One-Electron Energy =               -3970.6363435966818543
    Two-Electron Energy =                1693.8774010899396671
    DFT Exchange-Correlation Energy =     -89.5382263123577928
    Empirical Dispersion Energy =          -0.0134491413032513
    VV10 Nonlocal Energy =                  0.0000000000000000
    Total Energy =                      -1188.2052777133303607

Computation Completed


Properties will be evaluated at   0.353563,  -0.030163,   0.346881 [a0]

Properties computed using the SCF density matrix

  Nuclear Dipole Moment: [e a0]
     X:    24.3625      Y:    -2.0937      Z:    -4.4049

  Electronic Dipole Moment: [e a0]
     X:   -21.8058      Y:     1.6646      Z:     4.0768

  Dipole Moment: [e a0]
     X:     2.5567      Y:    -0.4292      Z:    -0.3282     Total:     2.6132

  Dipole Moment: [D]
     X:     6.4985      Y:    -1.0908      Z:    -0.8341     Total:     6.6420


*** tstop() called on cpu-spot-dy-c5n2xlarge-1 at Tue Jun 22 17:08:11 2021
Module time:
	user time   =     703.73 seconds =      11.73 minutes
	system time =       7.80 seconds =       0.13 minutes
	total time  =         96 seconds =       1.60 minutes
Total time:
	user time   =    2190.37 seconds =      36.51 minutes
	system time =      23.74 seconds =       0.40 minutes
	total time  =        298 seconds =       4.97 minutes

       N-Body: Complex Energy (fragments = (1,), basis = (1,): -1188.20527771333059)

   ==> N-Body: Now computing 2-body complexes <==


       N-Body: Computing complex (1/1) with fragments (1, 2) in the basis of fragments (1, 2).


*** tstart() called on cpu-spot-dy-c5n2xlarge-1
*** at Tue Jun 22 17:08:11 2021

   => Loading Basis Set <=

    Name: AUG-CC-PVDZ
    Role: ORBITAL
    Keyword: BASIS
    atoms 1             entry N          line   214 file /fsx/users/francis/anaconda3/envs/poltype-dev/share/psi4/basis/aug-cc-pvdz.gbs 
    atoms 2-3, 6-12, 14 entry C          line   178 file /fsx/users/francis/anaconda3/envs/poltype-dev/share/psi4/basis/aug-cc-pvdz.gbs 
    atoms 4-5           entry F          line   286 file /fsx/users/francis/anaconda3/envs/poltype-dev/share/psi4/basis/aug-cc-pvdz.gbs 
    atoms 13            entry S          line   698 file /fsx/users/francis/anaconda3/envs/poltype-dev/share/psi4/basis/aug-cc-pvdz.gbs 
    atoms 15-16, 24     entry O          line   250 file /fsx/users/francis/anaconda3/envs/poltype-dev/share/psi4/basis/aug-cc-pvdz.gbs 
    atoms 17-23, 25-26  entry H          line    36 file /fsx/users/francis/anaconda3/envs/poltype-dev/share/psi4/basis/aug-cc-pvdz.gbs 


         ---------------------------------------------------------
                                   SCF
               by Justin Turney, Rob Parrish, Andy Simmonett
                          and Daniel G. A. Smith
                              RKS Reference
                        8 Threads,  15258 MiB Core
         ---------------------------------------------------------

  ==> Geometry <==

    Molecular point group: c1
    Full point group: C1

    Geometry (in Angstrom), charge = 0, multiplicity = 1:

       Center              X                  Y                   Z               Mass       
    ------------   -----------------  -----------------  -----------------  -----------------
         N           -0.738222155156    -1.516416912281     0.266295624596    14.003074004430
         C           -2.003461155156    -1.265702912281     0.730845624596    12.000000000000
         C           -2.301243155156     0.222475087719     1.106844624596    12.000000000000
[...]
         H            5.355212844844     0.452940087719     0.305842624596     1.007825032230
         H            4.597805844844    -1.016513912281     0.992206624596     1.007825032230
         H            6.061262844844    -1.157474912281    -0.026396375404     1.007825032230
         O           -2.482025755156     0.171873087719    -2.459773775404    15.994914619570
         H           -3.406179755156     0.191887087719    -2.200282775404     1.007825032230
         H           -2.316984755156     0.929199087719    -3.023421775404     1.007825032230

  Running in c1 symmetry.

  Rotational constants: A =      0.02600  B =      0.00744  C =      0.00710 [cm^-1]
  Rotational constants: A =    779.49450  B =    223.06781  C =    212.84784 [MHz]
  Nuclear repulsion = 1333.809818589454835

  Charge       = 0
  Multiplicity = 1
  Electrons    = 134
  Nalpha       = 67
  Nbeta        = 67

  ==> Algorithm <==

  SCF Algorithm Type is DF.
  DIIS enabled.
  MOM disabled.
  Fractional occupation disabled.
  Guess Type is SAD.
  Energy threshold   = 1.00e-06
  Density threshold  = 1.00e-06
  Integral threshold = 0.00e+00

  ==> Primary Basis <==

  Basis Set: AUG-CC-PVDZ
    Blend: AUG-CC-PVDZ
    Number of shells: 200
    Number of basis function: 476
    Number of Cartesian functions: 510
    Spherical Harmonics?: true
    Max angular momentum: 2

  ==> DFT Potential <==

   => Composite Functional: WB97X-D <= 

    wB97X-D Hyb-GGA Exchange-Correlation Functional

    J.-D. Chai and M. Head-Gordon, Phys. Chem. Chem. Phys. 10, 6615 (2008)

    Deriv               =              1
    GGA                 =           TRUE
    Meta                =          FALSE

    Exchange Hybrid     =           TRUE
    MP2 Hybrid          =          FALSE

   => Exchange-Correlation Functionals <=

    1.0000   wB97D range-separated functional

   => Exact (HF) Exchange <=

    0.7780            HF,LR [omega = 0.2000]
    0.2220               HF 

   => Molecular Quadrature <=

    Radial Scheme          =       TREUTLER
    Pruning Scheme         =           FLAT
    Nuclear Scheme         =       TREUTLER

    BS radius alpha        =              1
    Pruning alpha          =              1
    Radial Points          =             75
    Spherical Points       =            302
    Total Points           =         588900
    Total Blocks           =           4353
    Max Points             =            256
    Max Functions          =            426

   => WB97X-D: Empirical Dispersion <=

    Chai and Head-Gordon Dispersion Correction
    Chai, J.-D.; Head-Gordon, M. (2010), J. Chem. Phys., 132: 6615-6620

        s6 =       1.000000

   => Loading Basis Set <=

    Name: (AUG-CC-PVDZ AUX)
    Role: JKFIT
    Keyword: DF_BASIS_SCF
    atoms 1             entry N          line   212 file /fsx/users/francis/anaconda3/envs/poltype-dev/share/psi4/basis/aug-cc-pvdz-jkfit.gbs 
    atoms 2-3, 6-12, 14 entry C          line   154 file /fsx/users/francis/anaconda3/envs/poltype-dev/share/psi4/basis/aug-cc-pvdz-jkfit.gbs 
    atoms 4-5           entry F          line   328 file /fsx/users/francis/anaconda3/envs/poltype-dev/share/psi4/basis/aug-cc-pvdz-jkfit.gbs 
    atoms 13            entry S          line   690 file /fsx/users/francis/anaconda3/envs/poltype-dev/share/psi4/basis/aug-cc-pvdz-jkfit.gbs 
    atoms 15-16, 24     entry O          line   270 file /fsx/users/francis/anaconda3/envs/poltype-dev/share/psi4/basis/aug-cc-pvdz-jkfit.gbs 
    atoms 17-23, 25-26  entry H          line    70 file /fsx/users/francis/anaconda3/envs/poltype-dev/share/psi4/basis/aug-cc-pvdz-jkfit.gbs 

  ==> Pre-Iterations <==

   -------------------------------------------------------
    Irrep   Nso     Nmo     Nalpha   Nbeta   Ndocc  Nsocc
   -------------------------------------------------------
     A        476     476       0       0       0       0
   -------------------------------------------------------
    Total     476     476      67      67      67       0
   -------------------------------------------------------

  ==> Integral Setup <==

  ==> DiskDFJK: Density-Fitted J/K Matrices <==

    J tasked:                  Yes
    K tasked:                  Yes
    wK tasked:                 Yes
    Omega:               2.000E-01
    OpenMP threads:              8
    Integrals threads:           8
    Memory [MiB]:             5910
    Algorithm:                Core
    Integral Cache:           NONE
    Schwarz Cutoff:          1E-12
    Fitting Condition:       1E-10

   => Auxiliary Basis Set <=

  Basis Set: (AUG-CC-PVDZ AUX)
    Blend: AUG-CC-PVDZ-JKFIT
    Number of shells: 596
    Number of basis function: 1792
    Number of Cartesian functions: 2081
    Spherical Harmonics?: true
    Max angular momentum: 3

  Cached 100.0% of DFT collocation blocks in 5.404 [GiB].

  Minimum eigenvalue in the overlap matrix is 1.3802530995E-06.
  Using Symmetric Orthogonalization.

  SCF Guess: Superposition of Atomic Densities via on-the-fly atomic UHF.

  ==> Iterations <==

                           Total Energy        Delta E     RMS |[F,P]|

   @DF-RKS iter SAD: -1263.38908538241844   -1.26339e+03   0.00000e+00 
   @DF-RKS iter   1: -1263.98066111446883   -5.91576e-01   2.55062e-03 DIIS
   @DF-RKS iter   2: -1263.96768004244336    1.29811e-02   2.77954e-03 DIIS
   @DF-RKS iter   3: -1264.60571742260322   -6.38037e-01   5.27116e-04 DIIS
   @DF-RKS iter   4: -1264.62905590802734   -2.33385e-02   1.89220e-04 DIIS
   @DF-RKS iter   5: -1264.63228137742567   -3.22547e-03   5.25925e-05 DIIS
   @DF-RKS iter   6: -1264.63257249242497   -2.91115e-04   1.38979e-05 DIIS
   @DF-RKS iter   7: -1264.63260085778916   -2.83654e-05   4.63331e-06 DIIS
   @DF-RKS iter   8: -1264.63260595854513   -5.10076e-06   1.88324e-06 DIIS
   @DF-RKS iter   9: -1264.63260716841523   -1.20987e-06   1.21014e-06 DIIS
   @DF-RKS iter  10: -1264.63260750080440   -3.32389e-07   3.81493e-07 DIIS
  Energy and wave function converged.


  ==> Post-Iterations <==

    Orbital Energies [Eh]
    ---------------------

    Doubly Occupied:                                                      

       1A    -89.065624     2A    -24.875368     3A    -24.866931  
       4A    -19.298455     5A    -19.287476     6A    -19.282086  
       7A    -14.529277     8A    -10.505024     9A    -10.449691  
      10A    -10.431512    11A    -10.401017    12A    -10.373200  
      13A    -10.350201    14A    -10.346366    15A    -10.344021  
      16A    -10.341954    17A    -10.338421    18A     -8.083120  
      19A     -6.032983    20A     -6.028862    21A     -6.021911  
      22A     -1.381719    23A     -1.324646    24A     -1.184204  
      25A     -1.174807    26A     -1.128676    27A     -1.086588  
      28A     -0.994505    29A     -0.932880    30A     -0.898094  
      31A     -0.882651    32A     -0.861777    33A     -0.787876  
      34A     -0.759725    35A     -0.746036    36A     -0.735461  
      37A     -0.690607    38A     -0.673039    39A     -0.665229  
      40A     -0.641036    41A     -0.637571    42A     -0.623581  
      43A     -0.585235    44A     -0.574828    45A     -0.562221  
      46A     -0.557994    47A     -0.551822    48A     -0.550205  
      49A     -0.545986    50A     -0.535117    51A     -0.530196  
      52A     -0.523225    53A     -0.514885    54A     -0.506267  
      55A     -0.496476    56A     -0.490069    57A     -0.488556  
      58A     -0.474922    59A     -0.468884    60A     -0.435641  
      61A     -0.416618    62A     -0.415228    63A     -0.392725  
      64A     -0.366735    65A     -0.362375    66A     -0.334041  
      67A     -0.327729  

    Virtual:                                                              

      68A     -0.050399    69A      0.012595    70A      0.026404  
      71A      0.033824    72A      0.036568    73A      0.041968  
      74A      0.048616    75A      0.051363    76A      0.059839  
      77A      0.064292    78A      0.066809    79A      0.073611  
      80A      0.079468    81A      0.079924    82A      0.093608  
      83A      0.095478    84A      0.103105    85A      0.108048  
      86A      0.111405    87A      0.116879    88A      0.117597  
      89A      0.120634    90A      0.125324    91A      0.130053  
      92A      0.132686    93A      0.134473    94A      0.139997  
      95A      0.145096    96A      0.150257    97A      0.153255  
      98A      0.154836    99A      0.159977   100A      0.163967  
     101A      0.167231   102A      0.169884   103A      0.174276  
     104A      0.176640   105A      0.180660   106A      0.182894  
     107A      0.183913   108A      0.189131   109A      0.196248  
     110A      0.197778   111A      0.203176   112A      0.206003  
     113A      0.213098   114A      0.214711   115A      0.219096  
     116A      0.223193   117A      0.224745   118A      0.231371  
     119A      0.234150   120A      0.238129   121A      0.242399  
     122A      0.245184   123A      0.251568   124A      0.255531  
     125A      0.261129   126A      0.265584   127A      0.267072  
     128A      0.268428   129A      0.274738   130A      0.275306  
     131A      0.279150   132A      0.282321   133A      0.283492  
     134A      0.284931   135A      0.291887   136A      0.294379  
     137A      0.300345   138A      0.305025   139A      0.310874  
     140A      0.313222   141A      0.315456   142A      0.319371  
     143A      0.322649   144A      0.329334   145A      0.333639  
     146A      0.337699   147A      0.344810   148A      0.349833  
     149A      0.352148   150A      0.354138   151A      0.359421  
     152A      0.363596   153A      0.367685   154A      0.370006  
     155A      0.375713   156A      0.381317   157A      0.384886  
     158A      0.386100   159A      0.388261   160A      0.394858  
     161A      0.399889   162A      0.400960   163A      0.407749  
     164A      0.409696   165A      0.417169   166A      0.418694  
     167A      0.421231   168A      0.430799   169A      0.432322  
     170A      0.439900   171A      0.442885   172A      0.447507  
     173A      0.454092   174A      0.461952   175A      0.468044  
     176A      0.471431   177A      0.476315   178A      0.485578  
     179A      0.488887   180A      0.493709   181A      0.497572  
     182A      0.499179   183A      0.510780   184A      0.514106  
     185A      0.517066   186A      0.521819   187A      0.527571  
     188A      0.533414   189A      0.538015   190A      0.539294  
     191A      0.547434   192A      0.553169   193A      0.555709  
     194A      0.564353   195A      0.569653   196A      0.576657  
     197A      0.580017   198A      0.583990   199A      0.589179  
     200A      0.591628   201A      0.600892   202A      0.605005  
     203A      0.607836   204A      0.616926   205A      0.621198  
     206A      0.628185   207A      0.628663   208A      0.632967  
     209A      0.638681   210A      0.642703   211A      0.647895  
     212A      0.651455   213A      0.656311   214A      0.660235  
     215A      0.662823   216A      0.674498   217A      0.679194  
     218A      0.682597   219A      0.684592   220A      0.688624  
     221A      0.693012   222A      0.699979   223A      0.704623  
     224A      0.710729   225A      0.713634   226A      0.719242  
     227A      0.730096   228A      0.733843   229A      0.744367  
     230A      0.751083   231A      0.759892   232A      0.766621  
     233A      0.773013   234A      0.774641   235A      0.777511  
     236A      0.785225   237A      0.794643   238A      0.800713  
     239A      0.810953   240A      0.815273   241A      0.817557  
     242A      0.828505   243A      0.836424   244A      0.838855  
     245A      0.839912   246A      0.844134   247A      0.851594  
     248A      0.859286   249A      0.860765   250A      0.870530  
     251A      0.874073   252A      0.886412   253A      0.891208  
     254A      0.903317   255A      0.906366   256A      0.910855  
     257A      0.928191   258A      0.929018   259A      0.945063  
     260A      0.955405   261A      0.958697   262A      0.971377  
     263A      0.980828   264A      0.983996   265A      1.000119  
     266A      1.002954   267A      1.009483   268A      1.022234  
     269A      1.032849   270A      1.040758   271A      1.054685  
     272A      1.064681   273A      1.067522   274A      1.078848  
     275A      1.081159   276A      1.082242   277A      1.092338  
     278A      1.102844   279A      1.109502   280A      1.121370  
     281A      1.128000   282A      1.140617   283A      1.152027  
     284A      1.154107   285A      1.160353   286A      1.165544  
     287A      1.184299   288A      1.193076   289A      1.205041  
     290A      1.218354   291A      1.221245   292A      1.231783  
     293A      1.236136   294A      1.259832   295A      1.266642  
     296A      1.274503   297A      1.289016   298A      1.293985  
     299A      1.305249   300A      1.309553   301A      1.316297  
     302A      1.330434   303A      1.332480   304A      1.344905  
     305A      1.351040   306A      1.361382   307A      1.372574  
     308A      1.375505   309A      1.382904   310A      1.389672  
     311A      1.412380   312A      1.418042   313A      1.421518  
     314A      1.435998   315A      1.441266   316A      1.451136  
     317A      1.455738   318A      1.471783   319A      1.480756  
     320A      1.486570   321A      1.495175   322A      1.500369  
     323A      1.512856   324A      1.534214   325A      1.540094  
     326A      1.551597   327A      1.560222   328A      1.563714  
     329A      1.570239   330A      1.581768   331A      1.589162  
     332A      1.596270   333A      1.602353   334A      1.606224  
     335A      1.614756   336A      1.623667   337A      1.627870  
     338A      1.636480   339A      1.642635   340A      1.658099  
     341A      1.670123   342A      1.676607   343A      1.679006  
     344A      1.694269   345A      1.698988   346A      1.704554  
     347A      1.709646   348A      1.724260   349A      1.740112  
     350A      1.747116   351A      1.756147   352A      1.766354  
     353A      1.770416   354A      1.789509   355A      1.798965  
     356A      1.807760   357A      1.820909   358A      1.830699  
     359A      1.832387   360A      1.845585   361A      1.854100  
     362A      1.862569   363A      1.871972   364A      1.881607  
     365A      1.893504   366A      1.898712   367A      1.899243  
     368A      1.921356   369A      1.922999   370A      1.936027  
     371A      1.943539   372A      1.955160   373A      1.965487  
     374A      1.970381   375A      1.977876   376A      1.990639  
     377A      1.995678   378A      2.003749   379A      2.014707  
     380A      2.028192   381A      2.032584   382A      2.052902  
     383A      2.058462   384A      2.067298   385A      2.074956  
     386A      2.084394   387A      2.095142   388A      2.103201  
     389A      2.107797   390A      2.132817   391A      2.145122  
     392A      2.152434   393A      2.166893   394A      2.177375  
     395A      2.191855   396A      2.207460   397A      2.212230  
     398A      2.227650   399A      2.235402   400A      2.242728  
     401A      2.269861   402A      2.281910   403A      2.288056  
     404A      2.302368   405A      2.315877   406A      2.320737  
     407A      2.335238   408A      2.342591   409A      2.350449  
     410A      2.358053   411A      2.372061   412A      2.400547  
     413A      2.413069   414A      2.429324   415A      2.433834  
     416A      2.450689   417A      2.496147   418A      2.505751  
     419A      2.521508   420A      2.542802   421A      2.593918  
     422A      2.598485   423A      2.607980   424A      2.631234  
     425A      2.653587   426A      2.672816   427A      2.690589  
     428A      2.694616   429A      2.706157   430A      2.716289  
     431A      2.739892   432A      2.756998   433A      2.805679  
     434A      2.816941   435A      2.866664   436A      2.963061  
     437A      2.983669   438A      3.029168   439A      3.047539  
     440A      3.114184   441A      3.169338   442A      3.188211  
     443A      3.377371   444A      3.392019   445A      3.404417  
     446A      3.431145   447A      3.446704   448A      3.450709  
     449A      3.462975   450A      3.482080   451A      3.500695  
     452A      3.505674   453A      3.516296   454A      3.560553  
     455A      3.574525   456A      3.587068   457A      3.618885  
     458A      3.697311   459A      3.715354   460A      3.769689  
     461A      3.798732   462A      3.854986   463A      3.889450  
     464A      3.996691   465A      4.029229   466A      4.476862  
     467A      4.628135   468A      4.674631   469A      4.706122  
     470A      4.727983   471A      4.751293   472A      4.759981  
     473A      4.794293   474A      4.823703   475A      4.871184  
     476A      4.905176  

    Final Occupation by Irrep:
              A 
    DOCC [    67 ]

  @DF-RKS Final Energy: -1264.63260750080440

   => Energetics <=

    Nuclear Repulsion Energy =           1333.8098185894548351
    One-Electron Energy =               -4387.2037286374606992
    Two-Electron Energy =                1884.7894628197809652
    DFT Exchange-Correlation Energy =     -96.0122888417351419
    Empirical Dispersion Energy =          -0.0158714308445122
    VV10 Nonlocal Energy =                  0.0000000000000000
    Total Energy =                      -1264.6326075008043972

Computation Completed


Properties will be evaluated at  -0.000000,   0.000000,   0.000000 [a0]

Properties computed using the SCF density matrix

  Nuclear Dipole Moment: [e a0]
     X:    19.8663      Y:    -1.1171      Z:    -8.4495

  Electronic Dipole Moment: [e a0]
     X:   -17.9012      Y:     1.1358      Z:     7.8172

  Dipole Moment: [e a0]
     X:     1.9650      Y:     0.0187      Z:    -0.6323     Total:     2.0644

  Dipole Moment: [D]
     X:     4.9946      Y:     0.0474      Z:    -1.6072     Total:     5.2471


*** tstop() called on cpu-spot-dy-c5n2xlarge-1 at Tue Jun 22 17:10:18 2021
Module time:
	user time   =     939.05 seconds =      15.65 minutes
	system time =       9.09 seconds =       0.15 minutes
	total time  =        127 seconds =       2.12 minutes
Total time:
	user time   =    3129.47 seconds =      52.16 minutes
	system time =      32.84 seconds =       0.55 minutes
	total time  =        425 seconds =       7.08 minutes

       N-Body: Complex Energy (fragments = (1, 2), basis = (1, 2): -1264.63260750080440)

   ==> N-Body: Counterpoise Corrected (CP) energies <==

   n-Body     Total Energy [Eh]       I.E. [kcal/mol]      Delta [kcal/mol]
        1    -1264.624790493837        0.000000000000        0.000000000000
        2    -1264.632053552082       -4.557637857140       -4.557637857140

   => Loading Basis Set <=

    Name: DEF2-SVP
    Role: ORBITAL
    Keyword: BASIS
    atoms 1             entry N          line   110 file /fsx/users/francis/anaconda3/envs/poltype-dev/share/psi4/basis/def2-svp.gbs 
    atoms 2-3, 6-12, 14 entry C          line    90 file /fsx/users/francis/anaconda3/envs/poltype-dev/share/psi4/basis/def2-svp.gbs 
    atoms 4-5           entry F          line   150 file /fsx/users/francis/anaconda3/envs/poltype-dev/share/psi4/basis/def2-svp.gbs 
    atoms 13            entry S          line   328 file /fsx/users/francis/anaconda3/envs/poltype-dev/share/psi4/basis/def2-svp.gbs 
    atoms 15-16, 24     entry O          line   130 file /fsx/users/francis/anaconda3/envs/poltype-dev/share/psi4/basis/def2-svp.gbs 
    atoms 17-23, 25-26  entry H          line    15 file /fsx/users/francis/anaconda3/envs/poltype-dev/share/psi4/basis/def2-svp.gbs 

CP Energy =  -0.007263
    Psi4 stopped on: Tuesday, 22 June 2021 05:10PM
    Psi4 wall time for execution: 0:07:05.86

*** Psi4 exiting successfully. Buy a developer a beer!
