
    -----------------------------------------------------------------------
          Psi4: An Open-Source Ab Initio Electronic Structure Package
                               Psi4 1.3.2 release

                         Git: Rev {HEAD} ecbda83 


    R. M. Parrish, L. A. Burns, D. G. A. Smith, A. C. Simmonett,
    A. E. DePrince III, E. G. Hohenstein, U. Bozkaya, A. Yu. Sokolov,
    R. Di Remigio, R. M. Richard, J. F. Gonthier, A. M. James,
    H. R. McAlexander, A. Kumar, M. Saitow, X. Wang, B. P. Pritchard,
    P. Verma, H. F. Schaefer III, K. Patkowski, R. A. King, E. F. Valeev,
    F. A. Evangelista, J. M. Turney, T. D. Crawford, and C. D. Sherrill,
    J. Chem. Theory Comput. 13(7) pp 3185--3197 (2017).
    (doi: 10.1021/acs.jctc.7b00174)


                         Additional Contributions by
    P. Kraus, H. Kruse, M. H. Lechner, M. C. Schieber, R. A. Shaw,
    A. Alenaizan, R. Galvelis, Z. L. Glick, S. Lehtola, and J. P. Misiewicz

    -----------------------------------------------------------------------


    Psi4 started on: Tuesday, 22 June 2021 04:55PM

    Process ID: 27048
    Host:       cpu-spot-dy-c5n2xlarge-1
    PSIDATADIR: /fsx/users/francis/anaconda3/envs/poltype-dev/share/psi4
    Memory:     500.0 MiB
    Threads:    1
    
  ==> Input File <==

--------------------------------------------------------------------------
molecule { 
0 1
  N                 -0.9434020    -1.2946320    -0.0708730
  C                 -2.2086410    -1.0439180     0.3936770
  C                 -2.5064230     0.4442600     0.7696760
  F                 -3.7903720     0.7497380     0.3523190
  F                 -2.4836960     0.5330490     2.1429320
  C                 -1.5166830     1.5216170     0.2013870
  C                 -0.1964200     1.0409120    -0.2702800
  C                  0.7882390     1.9604880    -0.6925130
  C                  2.0449640     1.5210510    -1.1271190
  C                  2.3379690     0.1335820    -1.1724330
  C                  1.3372550    -0.7903110    -0.8016000
  C                  0.0734500    -0.3537710    -0.3679190
  S                  3.8924890    -0.5349890    -1.6856220
  C                  4.9258200    -0.3817870    -0.2070430
  O                 -3.0103620    -1.9559730     0.5455690
  O                 -1.8061590     2.7159920     0.2283820
  H                  2.7864760     2.2648640    -1.4172820
  H                  0.5494890     3.0238560    -0.6588960
  H                 -0.7909570    -2.2752920    -0.2609620
  H                  1.5516850    -1.8593380    -0.8390890
  H                  5.1500330     0.6747250    -0.0313260
  H                  4.3926260    -0.7947290     0.6550380
  H                  5.8560830    -0.9356900    -0.3635650
--
0 1
  O                 -2.7021233     0.4216635    -2.5561282
  H                 -3.6262773     0.4416775    -2.2966372
  H                 -2.5370823     1.1789895    -3.1197762
}
memory 16GB
set_num_threads(8)
psi4_io.set_default_path("/scratch/Psi4-ligand")
set maxiter 500
set freeze_core True
set PROPERTIES_ORIGIN ["COM"]
e_dim= energy('wb97x-d/aug-cc-pVDZ',bsse_type='cp')

psi4.print_out('CP Energy = %10.6f' % (e_dim))
clean()
--------------------------------------------------------------------------

  Memory set to  14.901 GiB by Python driver.
  Threads set to 8 by Python driver.


   ===> N-Body Interaction Abacus <===
        BSSE Treatment:                     cp
        Number of 1-body computations:     4
        Number of 2-body computations:     1

   ==> N-Body: Now computing 1-body complexes <==


       N-Body: Computing complex (1/4) with fragments (2,) in the basis of fragments (2,).


*** tstart() called on cpu-spot-dy-c5n2xlarge-1
*** at Tue Jun 22 16:55:51 2021

   => Loading Basis Set <=

    Name: AUG-CC-PVDZ
    Role: ORBITAL
    Keyword: BASIS
    atoms 1   entry O          line   250 file /fsx/users/francis/anaconda3/envs/poltype-dev/share/psi4/basis/aug-cc-pvdz.gbs 
    atoms 2-3 entry H          line    36 file /fsx/users/francis/anaconda3/envs/poltype-dev/share/psi4/basis/aug-cc-pvdz.gbs 


         ---------------------------------------------------------
                                   SCF
               by Justin Turney, Rob Parrish, Andy Simmonett
                          and Daniel G. A. Smith
                              RKS Reference
                        8 Threads,  15258 MiB Core
         ---------------------------------------------------------

  ==> Geometry <==

    Molecular point group: c1
    Full point group: C1

    Geometry (in Angstrom), charge = 0, multiplicity = 1:

       Center              X                  Y                   Z               Mass       
    ------------   -----------------  -----------------  -----------------  -----------------
         O           -2.495914151381     0.197946241119    -2.235575472308    15.994914619570
         H           -3.420068151381     0.217960241119    -1.976084472308     1.007825032230
         H           -2.330873151381     0.955272241119    -2.799223472308     1.007825032230

  Running in c1 symmetry.

  Rotational constants: A =     11.57779  B =      0.08063  C =      0.08027 [cm^-1]
  Rotational constants: A = 347093.27226  B =   2417.21886  C =   2406.42095 [MHz]
  Nuclear repulsion =    9.167680042183255

  Charge       = 0
  Multiplicity = 1
  Electrons    = 10
  Nalpha       = 5
  Nbeta        = 5

  ==> Algorithm <==

  SCF Algorithm Type is DF.
  DIIS enabled.
  MOM disabled.
  Fractional occupation disabled.
  Guess Type is SAD.
  Energy threshold   = 1.00e-06
  Density threshold  = 1.00e-06
  Integral threshold = 0.00e+00

  ==> Primary Basis <==

  Basis Set: AUG-CC-PVDZ
    Blend: AUG-CC-PVDZ
    Number of shells: 19
    Number of basis function: 41
    Number of Cartesian functions: 43
    Spherical Harmonics?: true
    Max angular momentum: 2

  ==> DFT Potential <==

   => Composite Functional: WB97X-D <= 

    wB97X-D Hyb-GGA Exchange-Correlation Functional

    J.-D. Chai and M. Head-Gordon, Phys. Chem. Chem. Phys. 10, 6615 (2008)

    Deriv               =              1
    GGA                 =           TRUE
    Meta                =          FALSE

    Exchange Hybrid     =           TRUE
    MP2 Hybrid          =          FALSE

   => Exchange-Correlation Functionals <=

    1.0000   wB97D range-separated functional

   => Exact (HF) Exchange <=

    0.7780            HF,LR [omega = 0.2000]
    0.2220               HF 

   => Molecular Quadrature <=

    Radial Scheme          =       TREUTLER
    Pruning Scheme         =           FLAT
    Nuclear Scheme         =       TREUTLER

    BS radius alpha        =              1
    Pruning alpha          =              1
    Radial Points          =             75
    Spherical Points       =            302
    Total Points           =          67950
    Total Blocks           =            564
    Max Points             =            256
    Max Functions          =             41

   => WB97X-D: Empirical Dispersion <=

    Chai and Head-Gordon Dispersion Correction
    Chai, J.-D.; Head-Gordon, M. (2010), J. Chem. Phys., 132: 6615-6620

        s6 =       1.000000

   => Loading Basis Set <=

    Name: (AUG-CC-PVDZ AUX)
    Role: JKFIT
    Keyword: DF_BASIS_SCF
    atoms 1   entry O          line   270 file /fsx/users/francis/anaconda3/envs/poltype-dev/share/psi4/basis/aug-cc-pvdz-jkfit.gbs 
    atoms 2-3 entry H          line    70 file /fsx/users/francis/anaconda3/envs/poltype-dev/share/psi4/basis/aug-cc-pvdz-jkfit.gbs 

  ==> Pre-Iterations <==

   -------------------------------------------------------
    Irrep   Nso     Nmo     Nalpha   Nbeta   Ndocc  Nsocc
   -------------------------------------------------------
     A         41      41       0       0       0       0
   -------------------------------------------------------
    Total      41      41       5       5       5       0
   -------------------------------------------------------

  ==> Integral Setup <==

  ==> DiskDFJK: Density-Fitted J/K Matrices <==

    J tasked:                  Yes
    K tasked:                  Yes
    wK tasked:                 Yes
    Omega:               2.000E-01
    OpenMP threads:              8
    Integrals threads:           8
    Memory [MiB]:            11363
    Algorithm:                Core
    Integral Cache:           NONE
    Schwarz Cutoff:          1E-12
    Fitting Condition:       1E-10

   => Auxiliary Basis Set <=

  Basis Set: (AUG-CC-PVDZ AUX)
    Blend: AUG-CC-PVDZ-JKFIT
    Number of shells: 52
    Number of basis function: 150
    Number of Cartesian functions: 171
    Spherical Harmonics?: true
    Max angular momentum: 3

  Cached 100.0% of DFT collocation blocks in 0.079 [GiB].

  Minimum eigenvalue in the overlap matrix is 2.8193515776E-03.
  Using Symmetric Orthogonalization.

  SCF Guess: Superposition of Atomic Densities via on-the-fly atomic UHF.

  ==> Iterations <==

                           Total Energy        Delta E     RMS |[F,P]|

   @DF-RKS iter SAD:   -75.95321700269400   -7.59532e+01   0.00000e+00 
   @DF-RKS iter   1:   -76.27476441398798   -3.21547e-01   1.51054e-02 DIIS
   @DF-RKS iter   2:   -76.22813353911795    4.66309e-02   1.77952e-02 DIIS
   @DF-RKS iter   3:   -76.41935955629771   -1.91226e-01   3.63709e-04 DIIS
   @DF-RKS iter   4:   -76.41950459428652   -1.45038e-04   9.79776e-05 DIIS
   @DF-RKS iter   5:   -76.41951244468089   -7.85039e-06   1.86390e-05 DIIS
   @DF-RKS iter   6:   -76.41951276995614   -3.25275e-07   2.02234e-06 DIIS
   @DF-RKS iter   7:   -76.41951278058340   -1.06273e-08   2.55049e-07 DIIS
  Energy and wave function converged.


  ==> Post-Iterations <==

    Orbital Energies [Eh]
    ---------------------

    Doubly Occupied:                                                      

       1A    -19.278283     2A     -1.119637     3A     -0.632119  
       4A     -0.478515     5A     -0.406743  

    Virtual:                                                              

       6A      0.034026     7A      0.060946     8A      0.162146  
       9A      0.190777    10A      0.199490    11A      0.217702  
      12A      0.255703    13A      0.301685    14A      0.361988  
      15A      0.378259    16A      0.408160    17A      0.518155  
      18A      0.580144    19A      0.603718    20A      0.717066  
      21A      0.809684    22A      0.980420    23A      0.991959  
      24A      1.034589    25A      1.174839    26A      1.289264  
      27A      1.315532    28A      1.397340    29A      1.817921  
      30A      1.850668    31A      1.920386    32A      2.227868  
      33A      2.233138    34A      2.376514    35A      2.497969  
      36A      2.710936    37A      3.372575    38A      3.384521  
      39A      3.402574    40A      3.737779    41A      3.969136  

    Final Occupation by Irrep:
              A 
    DOCC [     5 ]

  @DF-RKS Final Energy:   -76.41951278058340

   => Energetics <=

    Nuclear Repulsion Energy =              9.1676800421832549
    One-Electron Energy =                -122.9496038698260918
    Two-Electron Energy =                  43.8352063088022916
    DFT Exchange-Correlation Energy =      -6.4727644462545584
    Empirical Dispersion Energy =          -0.0000308154882910
    VV10 Nonlocal Energy =                  0.0000000000000000
    Total Energy =                        -76.4195127805834034

Computation Completed


Properties will be evaluated at  -4.796866,   0.456263,  -4.256788 [a0]

Properties computed using the SCF density matrix

  Nuclear Dipole Moment: [e a0]
     X:    -0.6318      Y:     0.6470      Z:    -0.2531

  Electronic Dipole Moment: [e a0]
     X:     0.1461      Y:    -0.1492      Z:     0.0583

  Dipole Moment: [e a0]
     X:    -0.4857      Y:     0.4977      Z:    -0.1949     Total:     0.7223

  Dipole Moment: [D]
     X:    -1.2346      Y:     1.2651      Z:    -0.4953     Total:     1.8358


*** tstop() called on cpu-spot-dy-c5n2xlarge-1 at Tue Jun 22 16:55:52 2021
Module time:
	user time   =       8.20 seconds =       0.14 minutes
	system time =       0.29 seconds =       0.00 minutes
	total time  =          1 seconds =       0.02 minutes
Total time:
	user time   =       8.20 seconds =       0.14 minutes
	system time =       0.29 seconds =       0.00 minutes
	total time  =          1 seconds =       0.02 minutes

       N-Body: Complex Energy (fragments = (2,), basis = (2,):   -76.41951278058340)

       N-Body: Computing complex (2/4) with fragments (2,) in the basis of fragments (1, 2).


*** tstart() called on cpu-spot-dy-c5n2xlarge-1
*** at Tue Jun 22 16:55:52 2021

   => Loading Basis Set <=

    Name: AUG-CC-PVDZ
    Role: ORBITAL
    Keyword: BASIS
    atoms 1             entry N          line   214 file /fsx/users/francis/anaconda3/envs/poltype-dev/share/psi4/basis/aug-cc-pvdz.gbs 
    atoms 2-3, 6-12, 14 entry C          line   178 file /fsx/users/francis/anaconda3/envs/poltype-dev/share/psi4/basis/aug-cc-pvdz.gbs 
    atoms 4-5           entry F          line   286 file /fsx/users/francis/anaconda3/envs/poltype-dev/share/psi4/basis/aug-cc-pvdz.gbs 
    atoms 13            entry S          line   698 file /fsx/users/francis/anaconda3/envs/poltype-dev/share/psi4/basis/aug-cc-pvdz.gbs 
    atoms 15-16, 24     entry O          line   250 file /fsx/users/francis/anaconda3/envs/poltype-dev/share/psi4/basis/aug-cc-pvdz.gbs 
    atoms 17-23, 25-26  entry H          line    36 file /fsx/users/francis/anaconda3/envs/poltype-dev/share/psi4/basis/aug-cc-pvdz.gbs 


         ---------------------------------------------------------
                                   SCF
               by Justin Turney, Rob Parrish, Andy Simmonett
                          and Daniel G. A. Smith
                              RKS Reference
                        8 Threads,  15258 MiB Core
         ---------------------------------------------------------

  ==> Geometry <==

    Molecular point group: c1
    Full point group: C1

    Geometry (in Angstrom), charge = 0, multiplicity = 1:

       Center              X                  Y                   Z               Mass       
    ------------   -----------------  -----------------  -----------------  -----------------
      Gh(N)          -0.737192851381    -1.518349258881     0.249679727692    14.003074004430
      Gh(C)          -2.002431851381    -1.267635258881     0.714229727692    12.000000000000
      Gh(C)          -2.300213851381     0.220542741119     1.090228727692    12.000000000000
      Gh(F)          -3.584162851381     0.526020741119     0.672871727692    18.998403162730
      Gh(F)          -2.277486851381     0.309331741119     2.463484727692    18.998403162730
      Gh(C)          -1.310473851381     1.297899741119     0.521939727692    12.000000000000
      Gh(C)           0.009789148619     0.817194741119     0.050272727692    12.000000000000
      Gh(C)           0.994448148619     1.736770741119    -0.371960272308    12.000000000000
      Gh(C)           2.251173148619     1.297333741119    -0.806566272308    12.000000000000
      Gh(C)           2.544178148619    -0.090135258881    -0.851880272308    12.000000000000
      Gh(C)           1.543464148619    -1.014028258881    -0.481047272308    12.000000000000
      Gh(C)           0.279659148619    -0.577488258881    -0.047366272308    12.000000000000
      Gh(S)           4.098698148619    -0.758706258881    -1.365069272308    31.972071174400
      Gh(C)           5.132029148619    -0.605504258881     0.113509727692    12.000000000000
      Gh(O)          -2.804152851381    -2.179690258881     0.866121727692    15.994914619570
      Gh(O)          -1.599949851381     2.492274741119     0.548934727692    15.994914619570
      Gh(H)           2.992685148619     2.041146741119    -1.096729272308     1.007825032230
      Gh(H)           0.755698148619     2.800138741119    -0.338343272308     1.007825032230
      Gh(H)          -0.584747851381    -2.499009258881     0.059590727692     1.007825032230
      Gh(H)           1.757894148619    -2.083055258881    -0.518536272308     1.007825032230
      Gh(H)           5.356242148619     0.451007741119     0.289226727692     1.007825032230
      Gh(H)           4.598835148619    -1.018446258881     0.975590727692     1.007825032230
      Gh(H)           6.062292148619    -1.159407258881    -0.043012272308     1.007825032230
         O           -2.495914151381     0.197946241119    -2.235575472308    15.994914619570
         H           -3.420068151381     0.217960241119    -1.976084472308     1.007825032230
         H           -2.330873151381     0.955272241119    -2.799223472308     1.007825032230

  Running in c1 symmetry.

  Rotational constants: A =      0.02700  B =      0.00750  C =      0.00709 [cm^-1]
  Rotational constants: A =    809.33438  B =    224.94527  C =    212.40323 [MHz]
  Nuclear repulsion =    9.167680042183255

  Charge       = 0
  Multiplicity = 1
  Electrons    = 10
  Nalpha       = 5
  Nbeta        = 5

  ==> Algorithm <==

  SCF Algorithm Type is DF.
  DIIS enabled.
  MOM disabled.
  Fractional occupation disabled.
  Guess Type is SAD.
  Energy threshold   = 1.00e-06
  Density threshold  = 1.00e-06
  Integral threshold = 0.00e+00

  ==> Primary Basis <==

  Basis Set: AUG-CC-PVDZ
    Blend: AUG-CC-PVDZ
    Number of shells: 200
    Number of basis function: 476
    Number of Cartesian functions: 510
    Spherical Harmonics?: true
    Max angular momentum: 2

  ==> DFT Potential <==

   => Composite Functional: WB97X-D <= 

    wB97X-D Hyb-GGA Exchange-Correlation Functional

    J.-D. Chai and M. Head-Gordon, Phys. Chem. Chem. Phys. 10, 6615 (2008)

    Deriv               =              1
    GGA                 =           TRUE
    Meta                =          FALSE

    Exchange Hybrid     =           TRUE
    MP2 Hybrid          =          FALSE

   => Exchange-Correlation Functionals <=

    1.0000   wB97D range-separated functional

   => Exact (HF) Exchange <=

    0.7780            HF,LR [omega = 0.2000]
    0.2220               HF 

   => Molecular Quadrature <=

    Radial Scheme          =       TREUTLER
    Pruning Scheme         =           FLAT
    Nuclear Scheme         =       TREUTLER

    BS radius alpha        =              1
    Pruning alpha          =              1
    Radial Points          =             75
    Spherical Points       =            302
    Total Points           =         588900
    Total Blocks           =           4358
    Max Points             =            256
    Max Functions          =            426

   => WB97X-D: Empirical Dispersion <=

    Chai and Head-Gordon Dispersion Correction
    Chai, J.-D.; Head-Gordon, M. (2010), J. Chem. Phys., 132: 6615-6620

        s6 =       1.000000

   => Loading Basis Set <=

    Name: (AUG-CC-PVDZ AUX)
    Role: JKFIT
    Keyword: DF_BASIS_SCF
    atoms 1             entry N          line   212 file /fsx/users/francis/anaconda3/envs/poltype-dev/share/psi4/basis/aug-cc-pvdz-jkfit.gbs 
    atoms 2-3, 6-12, 14 entry C          line   154 file /fsx/users/francis/anaconda3/envs/poltype-dev/share/psi4/basis/aug-cc-pvdz-jkfit.gbs 
    atoms 4-5           entry F          line   328 file /fsx/users/francis/anaconda3/envs/poltype-dev/share/psi4/basis/aug-cc-pvdz-jkfit.gbs 
    atoms 13            entry S          line   690 file /fsx/users/francis/anaconda3/envs/poltype-dev/share/psi4/basis/aug-cc-pvdz-jkfit.gbs 
    atoms 15-16, 24     entry O          line   270 file /fsx/users/francis/anaconda3/envs/poltype-dev/share/psi4/basis/aug-cc-pvdz-jkfit.gbs 
    atoms 17-23, 25-26  entry H          line    70 file /fsx/users/francis/anaconda3/envs/poltype-dev/share/psi4/basis/aug-cc-pvdz-jkfit.gbs 

  ==> Pre-Iterations <==

   -------------------------------------------------------
    Irrep   Nso     Nmo     Nalpha   Nbeta   Ndocc  Nsocc
   -------------------------------------------------------
     A        476     476       0       0       0       0
   -------------------------------------------------------
    Total     476     476       5       5       5       0
   -------------------------------------------------------

  ==> Integral Setup <==

  ==> DiskDFJK: Density-Fitted J/K Matrices <==

    J tasked:                  Yes
    K tasked:                  Yes
    wK tasked:                 Yes
    Omega:               2.000E-01
    OpenMP threads:              8
    Integrals threads:           8
    Memory [MiB]:             5887
    Algorithm:                Core
    Integral Cache:           NONE
    Schwarz Cutoff:          1E-12
    Fitting Condition:       1E-10

   => Auxiliary Basis Set <=

  Basis Set: (AUG-CC-PVDZ AUX)
    Blend: AUG-CC-PVDZ-JKFIT
    Number of shells: 596
    Number of basis function: 1792
    Number of Cartesian functions: 2081
    Spherical Harmonics?: true
    Max angular momentum: 3

  Cached 100.0% of DFT collocation blocks in 5.426 [GiB].

  Minimum eigenvalue in the overlap matrix is 1.3799443345E-06.
  Using Symmetric Orthogonalization.

  SCF Guess: Superposition of Atomic Densities via on-the-fly atomic UHF.

  ==> Iterations <==

                           Total Energy        Delta E     RMS |[F,P]|

   @DF-RKS iter SAD:   -75.95322522551500   -7.59532e+01   0.00000e+00 
   @DF-RKS iter   1:   -76.27508108417733   -3.21856e-01   1.30371e-03 DIIS
   @DF-RKS iter   2:   -76.22825012617805    4.68310e-02   1.53610e-03 DIIS
   @DF-RKS iter   3:   -76.41969660029191   -1.91446e-01   3.17562e-05 DIIS
   @DF-RKS iter   4:   -76.41984840661382   -1.51806e-04   8.70522e-06 DIIS
   @DF-RKS iter   5:   -76.41985681192939   -8.40532e-06   1.62355e-06 DIIS
   @DF-RKS iter   6:   -76.41985715375706   -3.41828e-07   1.81924e-07 DIIS
  Energy and wave function converged.


  ==> Post-Iterations <==

    Orbital Energies [Eh]
    ---------------------

    Doubly Occupied:                                                      

       1A    -19.278239     2A     -1.119527     3A     -0.631973  
       4A     -0.478368     5A     -0.406566  

    Virtual:                                                              

       6A      0.021276     7A      0.030777     8A      0.038364  
       9A      0.045473    10A      0.050053    11A      0.055337  
      12A      0.059631    13A      0.069438    14A      0.073493  
      15A      0.077767    16A      0.081424    17A      0.089466  
      18A      0.093531    19A      0.096814    20A      0.104293  
      21A      0.107607    22A      0.110934    23A      0.118008  
      24A      0.120614    25A      0.125499    26A      0.132651  
      27A      0.137310    28A      0.143369    29A      0.144825  
      30A      0.147519    31A      0.153468    32A      0.158335  
      33A      0.163779    34A      0.167462    35A      0.169885  
      36A      0.172865    37A      0.177195    38A      0.178386  
      39A      0.184373    40A      0.190955    41A      0.191747  
      42A      0.197209    43A      0.201999    44A      0.208645  
      45A      0.213263    46A      0.216702    47A      0.219674  
      48A      0.224308    49A      0.226986    50A      0.230742  
      51A      0.237483    52A      0.239730    53A      0.241707  
      54A      0.247368    55A      0.253349    56A      0.256930  
      57A      0.263387    58A      0.268539    59A      0.274544  
      60A      0.283654    61A      0.285357    62A      0.287725  
      63A      0.295752    64A      0.298761    65A      0.305037  
      66A      0.309281    67A      0.320512    68A      0.323418  
      69A      0.332796    70A      0.335111    71A      0.339294  
      72A      0.345676    73A      0.351157    74A      0.351698  
      75A      0.357047    76A      0.363031    77A      0.365540  
      78A      0.377884    79A      0.379430    80A      0.383946  
      81A      0.389272    82A      0.396082    83A      0.402646  
      84A      0.407394    85A      0.411928    86A      0.415158  
      87A      0.423366    88A      0.426706    89A      0.433148  
      90A      0.435423    91A      0.440035    92A      0.451737  
      93A      0.455082    94A      0.456703    95A      0.460973  
      96A      0.468589    97A      0.473150    98A      0.477133  
      99A      0.484526   100A      0.494389   101A      0.495745  
     102A      0.503703   103A      0.509825   104A      0.513883  
     105A      0.515660   106A      0.527341   107A      0.531108  
     108A      0.536115   109A      0.540610   110A      0.547947  
     111A      0.552581   112A      0.557953   113A      0.562422  
     114A      0.566450   115A      0.568209   116A      0.574191  
     117A      0.579308   118A      0.581628   119A      0.589563  
     120A      0.603174   121A      0.610214   122A      0.614698  
     123A      0.620088   124A      0.625651   125A      0.626617  
     126A      0.633608   127A      0.641781   128A      0.643198  
     129A      0.646087   130A      0.654270   131A      0.658492  
     132A      0.668923   133A      0.673988   134A      0.681180  
     135A      0.685114   136A      0.691167   137A      0.706839  
     138A      0.711543   139A      0.718752   140A      0.720690  
     141A      0.728756   142A      0.734290   143A      0.737644  
     144A      0.746002   145A      0.749478   146A      0.762448  
     147A      0.770255   148A      0.772469   149A      0.782820  
     150A      0.794765   151A      0.795781   152A      0.802545  
     153A      0.806003   154A      0.817172   155A      0.821539  
     156A      0.830879   157A      0.835713   158A      0.843057  
     159A      0.848633   160A      0.858243   161A      0.860743  
     162A      0.863032   163A      0.864509   164A      0.880114  
     165A      0.881861   166A      0.887917   167A      0.894472  
     168A      0.904563   169A      0.907665   170A      0.919191  
     171A      0.922976   172A      0.938013   173A      0.947382  
     174A      0.949378   175A      0.959718   176A      0.962138  
     177A      0.971185   178A      0.977448   179A      0.981841  
     180A      0.987141   181A      0.991976   182A      0.998900  
     183A      1.005171   184A      1.014341   185A      1.022037  
     186A      1.024620   187A      1.034782   188A      1.046048  
     189A      1.055433   190A      1.067936   191A      1.076825  
     192A      1.080671   193A      1.086518   194A      1.096207  
     195A      1.101431   196A      1.111303   197A      1.117461  
     198A      1.136469   199A      1.152620   200A      1.164186  
     201A      1.167672   202A      1.175547   203A      1.181020  
     204A      1.187523   205A      1.194652   206A      1.210571  
     207A      1.219650   208A      1.226029   209A      1.235975  
     210A      1.238396   211A      1.254488   212A      1.257064  
     213A      1.275910   214A      1.282519   215A      1.313978  
     216A      1.319113   217A      1.323590   218A      1.332473  
     219A      1.339166   220A      1.345403   221A      1.346568  
     222A      1.363873   223A      1.383960   224A      1.393886  
     225A      1.402596   226A      1.423634   227A      1.428262  
     228A      1.439153   229A      1.450217   230A      1.454824  
     231A      1.473942   232A      1.481025   233A      1.491232  
     234A      1.501736   235A      1.505210   236A      1.513410  
     237A      1.538634   238A      1.556810   239A      1.561374  
     240A      1.574438   241A      1.587697   242A      1.593222  
     243A      1.617384   244A      1.629064   245A      1.639789  
     246A      1.662412   247A      1.668412   248A      1.683048  
     249A      1.686449   250A      1.714200   251A      1.719847  
     252A      1.743593   253A      1.763070   254A      1.778936  
     255A      1.787591   256A      1.806473   257A      1.813321  
     258A      1.818921   259A      1.863829   260A      1.878451  
     261A      1.890214   262A      1.899671   263A      1.906856  
     264A      1.925551   265A      1.942137   266A      1.956978  
     267A      1.974362   268A      2.012796   269A      2.028247  
     270A      2.046219   271A      2.052323   272A      2.075137  
     273A      2.084556   274A      2.089730   275A      2.097839  
     276A      2.107808   277A      2.125323   278A      2.139839  
     279A      2.156695   280A      2.179567   281A      2.191582  
     282A      2.194774   283A      2.208276   284A      2.224704  
     285A      2.229586   286A      2.247186   287A      2.248710  
     288A      2.253123   289A      2.263793   290A      2.272326  
     291A      2.276474   292A      2.285260   293A      2.290323  
     294A      2.298814   295A      2.310150   296A      2.320563  
     297A      2.330067   298A      2.336619   299A      2.345173  
     300A      2.350886   301A      2.356846   302A      2.376071  
     303A      2.379532   304A      2.385764   305A      2.391560  
     306A      2.413599   307A      2.418466   308A      2.421999  
     309A      2.433903   310A      2.451129   311A      2.465760  
     312A      2.484446   313A      2.510685   314A      2.523693  
     315A      2.546995   316A      2.566824   317A      2.578363  
     318A      2.593460   319A      2.606071   320A      2.620777  
     321A      2.626076   322A      2.632240   323A      2.638229  
     324A      2.654910   325A      2.666498   326A      2.673662  
     327A      2.684661   328A      2.715082   329A      2.748588  
     330A      2.761360   331A      2.765022   332A      2.796659  
     333A      2.812306   334A      2.818711   335A      2.832180  
     336A      2.846175   337A      2.857270   338A      2.880994  
     339A      2.887943   340A      2.895024   341A      2.902967  
     342A      2.922687   343A      2.936441   344A      2.963930  
     345A      2.987096   346A      3.001126   347A      3.024722  
     348A      3.033064   349A      3.042267   350A      3.068232  
     351A      3.078338   352A      3.102319   353A      3.134879  
     354A      3.148785   355A      3.183405   356A      3.189456  
     357A      3.253946   358A      3.272138   359A      3.277169  
     360A      3.285361   361A      3.292984   362A      3.318626  
     363A      3.328572   364A      3.368251   365A      3.368916  
     366A      3.440366   367A      3.447095   368A      3.470986  
     369A      3.478150   370A      3.491079   371A      3.509064  
     372A      3.524360   373A      3.550493   374A      3.569978  
     375A      3.593959   376A      3.614246   377A      3.659284  
     378A      3.683842   379A      3.712981   380A      3.729134  
     381A      3.783786   382A      3.814217   383A      3.822090  
     384A      3.876137   385A      3.910734   386A      3.919201  
     387A      3.992118   388A      4.014764   389A      4.032530  
     390A      4.067756   391A      4.084763   392A      4.148450  
     393A      4.191852   394A      4.248073   395A      4.329959  
     396A      4.343931   397A      4.376833   398A      4.389813  
     399A      4.471988   400A      4.533199   401A      4.542972  
     402A      4.610305   403A      4.658681   404A      4.678363  
     405A      4.736243   406A      4.803141   407A      4.842583  
     408A      4.913216   409A      4.955539   410A      5.005061  
     411A      5.032319   412A      5.053523   413A      5.060018  
     414A      5.069823   415A      5.073417   416A      5.089236  
     417A      5.094172   418A      5.103261   419A      5.135606  
     420A      5.219547   421A      5.267041   422A      5.296969  
     423A      5.325196   424A      5.385858   425A      5.416129  
     426A      5.434681   427A      5.478619   428A      5.536897  
     429A      5.636640   430A      5.838845   431A      5.986001  
     432A      6.044118   433A      6.059566   434A      6.132703  
     435A      6.162352   436A      6.178894   437A      6.456225  
     438A      6.513477   439A      6.817291   440A      6.829808  
     441A      6.869511   442A      6.872203   443A      6.886269  
     444A      6.915172   445A      6.943093   446A      6.954934  
     447A      6.979287   448A      6.995421   449A      7.035680  
     450A      7.061373   451A      7.128738   452A      7.794566  
     453A      7.939009   454A      7.996224   455A      8.110291  
     456A      8.150672   457A      8.260401   458A     18.011723  
     459A     18.423577   460A     18.570654   461A     18.629846  
     462A     18.800489   463A     18.898991   464A     19.160603  
     465A     19.370991   466A     19.656552   467A     20.626460  
     468A     20.753820   469A     20.894198   470A     21.436836  
     471A     25.497440   472A     33.551275   473A     33.559154  
     474A     43.020211   475A     43.021138   476A    138.006277  

    Final Occupation by Irrep:
              A 
    DOCC [     5 ]

  @DF-RKS Final Energy:   -76.41985715375706

   => Energetics <=

    Nuclear Repulsion Energy =              9.1676800421832549
    One-Electron Energy =                -122.9513526005448227
    Two-Electron Energy =                  43.8368131922301885
    DFT Exchange-Correlation Energy =      -6.4729669721373755
    Empirical Dispersion Energy =          -0.0000308154882910
    VV10 Nonlocal Energy =                  0.0000000000000000
    Total Energy =                        -76.4198571537570359

Computation Completed


Properties will be evaluated at   0.000000,   0.000000,   0.000000 [a0]

Properties computed using the SCF density matrix

  Nuclear Dipole Moment: [e a0]
     X:   -48.6005      Y:     5.2096      Z:   -42.8210

  Electronic Dipole Moment: [e a0]
     X:    48.1157      Y:    -4.7128      Z:    42.6269

  Dipole Moment: [e a0]
     X:    -0.4847      Y:     0.4968      Z:    -0.1942     Total:     0.7208

  Dipole Moment: [D]
     X:    -1.2321      Y:     1.2628      Z:    -0.4935     Total:     1.8320


*** tstop() called on cpu-spot-dy-c5n2xlarge-1 at Tue Jun 22 16:57:15 2021
Module time:
	user time   =     596.15 seconds =       9.94 minutes
	system time =       7.13 seconds =       0.12 minutes
	total time  =         83 seconds =       1.38 minutes
Total time:
	user time   =     604.42 seconds =      10.07 minutes
	system time =       7.42 seconds =       0.12 minutes
	total time  =         84 seconds =       1.40 minutes

       N-Body: Complex Energy (fragments = (2,), basis = (1, 2):   -76.41985715375706)

       N-Body: Computing complex (3/4) with fragments (1,) in the basis of fragments (1, 2).


*** tstart() called on cpu-spot-dy-c5n2xlarge-1
*** at Tue Jun 22 16:57:15 2021

   => Loading Basis Set <=

    Name: AUG-CC-PVDZ
    Role: ORBITAL
    Keyword: BASIS
    atoms 1             entry N          line   214 file /fsx/users/francis/anaconda3/envs/poltype-dev/share/psi4/basis/aug-cc-pvdz.gbs 
    atoms 2-3, 6-12, 14 entry C          line   178 file /fsx/users/francis/anaconda3/envs/poltype-dev/share/psi4/basis/aug-cc-pvdz.gbs 
    atoms 4-5           entry F          line   286 file /fsx/users/francis/anaconda3/envs/poltype-dev/share/psi4/basis/aug-cc-pvdz.gbs 
    atoms 13            entry S          line   698 file /fsx/users/francis/anaconda3/envs/poltype-dev/share/psi4/basis/aug-cc-pvdz.gbs 
    atoms 15-16, 24     entry O          line   250 file /fsx/users/francis/anaconda3/envs/poltype-dev/share/psi4/basis/aug-cc-pvdz.gbs 
    atoms 17-23, 25-26  entry H          line    36 file /fsx/users/francis/anaconda3/envs/poltype-dev/share/psi4/basis/aug-cc-pvdz.gbs 


         ---------------------------------------------------------
                                   SCF
               by Justin Turney, Rob Parrish, Andy Simmonett
                          and Daniel G. A. Smith
                              RKS Reference
                        8 Threads,  15258 MiB Core
         ---------------------------------------------------------

  ==> Geometry <==

    Molecular point group: c1
    Full point group: C1

    Geometry (in Angstrom), charge = 0, multiplicity = 1:

       Center              X                  Y                   Z               Mass       
    ------------   -----------------  -----------------  -----------------  -----------------
         N           -0.737192851381    -1.518349258881     0.249679727692    14.003074004430
         C           -2.002431851381    -1.267635258881     0.714229727692    12.000000000000
         C           -2.300213851381     0.220542741119     1.090228727692    12.000000000000
         F           -3.584162851381     0.526020741119     0.672871727692    18.998403162730
         F           -2.277486851381     0.309331741119     2.463484727692    18.998403162730
         C           -1.310473851381     1.297899741119     0.521939727692    12.000000000000
         C            0.009789148619     0.817194741119     0.050272727692    12.000000000000
         C            0.994448148619     1.736770741119    -0.371960272308    12.000000000000
         C            2.251173148619     1.297333741119    -0.806566272308    12.000000000000
         C            2.544178148619    -0.090135258881    -0.851880272308    12.000000000000
         C            1.543464148619    -1.014028258881    -0.481047272308    12.000000000000
         C            0.279659148619    -0.577488258881    -0.047366272308    12.000000000000
         S            4.098698148619    -0.758706258881    -1.365069272308    31.972071174400
         C            5.132029148619    -0.605504258881     0.113509727692    12.000000000000
         O           -2.804152851381    -2.179690258881     0.866121727692    15.994914619570
         O           -1.599949851381     2.492274741119     0.548934727692    15.994914619570
         H            2.992685148619     2.041146741119    -1.096729272308     1.007825032230
         H            0.755698148619     2.800138741119    -0.338343272308     1.007825032230
         H           -0.584747851381    -2.499009258881     0.059590727692     1.007825032230
         H            1.757894148619    -2.083055258881    -0.518536272308     1.007825032230
         H            5.356242148619     0.451007741119     0.289226727692     1.007825032230
         H            4.598835148619    -1.018446258881     0.975590727692     1.007825032230
         H            6.062292148619    -1.159407258881    -0.043012272308     1.007825032230
      Gh(O)          -2.495914151381     0.197946241119    -2.235575472308    15.994914619570
      Gh(H)          -3.420068151381     0.217960241119    -1.976084472308     1.007825032230
      Gh(H)          -2.330873151381     0.955272241119    -2.799223472308     1.007825032230

  Running in c1 symmetry.

  Rotational constants: A =      0.02700  B =      0.00750  C =      0.00709 [cm^-1]
  Rotational constants: A =    809.33438  B =    224.94527  C =    212.40323 [MHz]
  Nuclear repulsion = 1178.105340247073173

  Charge       = 0
  Multiplicity = 1
  Electrons    = 124
  Nalpha       = 62
  Nbeta        = 62

  ==> Algorithm <==

  SCF Algorithm Type is DF.
  DIIS enabled.
  MOM disabled.
  Fractional occupation disabled.
  Guess Type is SAD.
  Energy threshold   = 1.00e-06
  Density threshold  = 1.00e-06
  Integral threshold = 0.00e+00

  ==> Primary Basis <==

  Basis Set: AUG-CC-PVDZ
    Blend: AUG-CC-PVDZ
    Number of shells: 200
    Number of basis function: 476
    Number of Cartesian functions: 510
    Spherical Harmonics?: true
    Max angular momentum: 2

  ==> DFT Potential <==

   => Composite Functional: WB97X-D <= 

    wB97X-D Hyb-GGA Exchange-Correlation Functional

    J.-D. Chai and M. Head-Gordon, Phys. Chem. Chem. Phys. 10, 6615 (2008)

    Deriv               =              1
    GGA                 =           TRUE
    Meta                =          FALSE

    Exchange Hybrid     =           TRUE
    MP2 Hybrid          =          FALSE

   => Exchange-Correlation Functionals <=

    1.0000   wB97D range-separated functional

   => Exact (HF) Exchange <=

    0.7780            HF,LR [omega = 0.2000]
    0.2220               HF 

   => Molecular Quadrature <=

    Radial Scheme          =       TREUTLER
    Pruning Scheme         =           FLAT
    Nuclear Scheme         =       TREUTLER

    BS radius alpha        =              1
    Pruning alpha          =              1
    Radial Points          =             75
    Spherical Points       =            302
    Total Points           =         588900
    Total Blocks           =           4358
    Max Points             =            256
    Max Functions          =            426

   => WB97X-D: Empirical Dispersion <=

    Chai and Head-Gordon Dispersion Correction
    Chai, J.-D.; Head-Gordon, M. (2010), J. Chem. Phys., 132: 6615-6620

        s6 =       1.000000

   => Loading Basis Set <=

    Name: (AUG-CC-PVDZ AUX)
    Role: JKFIT
    Keyword: DF_BASIS_SCF
    atoms 1             entry N          line   212 file /fsx/users/francis/anaconda3/envs/poltype-dev/share/psi4/basis/aug-cc-pvdz-jkfit.gbs 
    atoms 2-3, 6-12, 14 entry C          line   154 file /fsx/users/francis/anaconda3/envs/poltype-dev/share/psi4/basis/aug-cc-pvdz-jkfit.gbs 
    atoms 4-5           entry F          line   328 file /fsx/users/francis/anaconda3/envs/poltype-dev/share/psi4/basis/aug-cc-pvdz-jkfit.gbs 
    atoms 13            entry S          line   690 file /fsx/users/francis/anaconda3/envs/poltype-dev/share/psi4/basis/aug-cc-pvdz-jkfit.gbs 
    atoms 15-16, 24     entry O          line   270 file /fsx/users/francis/anaconda3/envs/poltype-dev/share/psi4/basis/aug-cc-pvdz-jkfit.gbs 
    atoms 17-23, 25-26  entry H          line    70 file /fsx/users/francis/anaconda3/envs/poltype-dev/share/psi4/basis/aug-cc-pvdz-jkfit.gbs 

  ==> Pre-Iterations <==

   -------------------------------------------------------
    Irrep   Nso     Nmo     Nalpha   Nbeta   Ndocc  Nsocc
   -------------------------------------------------------
     A        476     476       0       0       0       0
   -------------------------------------------------------
    Total     476     476      62      62      62       0
   -------------------------------------------------------

  ==> Integral Setup <==

  ==> DiskDFJK: Density-Fitted J/K Matrices <==

    J tasked:                  Yes
    K tasked:                  Yes
    wK tasked:                 Yes
    Omega:               2.000E-01
    OpenMP threads:              8
    Integrals threads:           8
    Memory [MiB]:             5887
    Algorithm:                Core
    Integral Cache:           NONE
    Schwarz Cutoff:          1E-12
    Fitting Condition:       1E-10

   => Auxiliary Basis Set <=

  Basis Set: (AUG-CC-PVDZ AUX)
    Blend: AUG-CC-PVDZ-JKFIT
    Number of shells: 596
    Number of basis function: 1792
    Number of Cartesian functions: 2081
    Spherical Harmonics?: true
    Max angular momentum: 3

  Cached 100.0% of DFT collocation blocks in 5.426 [GiB].

  Minimum eigenvalue in the overlap matrix is 1.3799443345E-06.
  Using Symmetric Orthogonalization.

  SCF Guess: Superposition of Atomic Densities via on-the-fly atomic UHF.

  ==> Iterations <==

                           Total Energy        Delta E     RMS |[F,P]|

   @DF-RKS iter SAD: -1187.39105863071359   -1.18739e+03   0.00000e+00 
   @DF-RKS iter   1: -1187.69083108733798   -2.99772e-01   2.21286e-03 DIIS
   @DF-RKS iter   2: -1187.69896348416364   -8.13240e-03   2.40482e-03 DIIS
   @DF-RKS iter   3: -1188.17493429688716   -4.75971e-01   5.66656e-04 DIIS
   @DF-RKS iter   4: -1188.20320103037852   -2.82667e-02   1.48291e-04 DIIS
   @DF-RKS iter   5: -1188.20540118864051   -2.20016e-03   4.24230e-05 DIIS
   @DF-RKS iter   6: -1188.20562433395480   -2.23145e-04   1.44155e-05 DIIS
   @DF-RKS iter   7: -1188.20565047086939   -2.61369e-05   4.47167e-06 DIIS
   @DF-RKS iter   8: -1188.20565542477561   -4.95391e-06   1.64674e-06 DIIS
   @DF-RKS iter   9: -1188.20565663068260   -1.20591e-06   1.05643e-06 DIIS
   @DF-RKS iter  10: -1188.20565687625185   -2.45569e-07   3.76093e-07 DIIS
  Energy and wave function converged.


  ==> Post-Iterations <==

    Orbital Energies [Eh]
    ---------------------

    Doubly Occupied:                                                      

       1A    -89.069951     2A    -24.878974     3A    -24.868392  
       4A    -19.303981     5A    -19.288031     6A    -14.536925  
       7A    -10.509311     8A    -10.455467     9A    -10.436330  
      10A    -10.407974    11A    -10.379051    12A    -10.356723  
      13A    -10.352188    14A    -10.350207    15A    -10.345727  
      16A    -10.343887    17A     -8.087456    18A     -6.037329  
      19A     -6.033195    20A     -6.026232    21A     -1.384480  
      22A     -1.326751    23A     -1.190331    24A     -1.179965  
      25A     -1.094090    26A     -1.000652    27A     -0.938500  
      28A     -0.903656    29A     -0.888640    30A     -0.866726  
      31A     -0.792735    32A     -0.765837    33A     -0.752170  
      34A     -0.740146    35A     -0.695529    36A     -0.678228  
      37A     -0.668069    38A     -0.643650    39A     -0.628619  
      40A     -0.591013    41A     -0.579548    42A     -0.568230  
      43A     -0.563287    44A     -0.557307    45A     -0.554958  
      46A     -0.549688    47A     -0.538780    48A     -0.534002  
      49A     -0.527382    50A     -0.516991    51A     -0.511444  
      52A     -0.500783    53A     -0.494134    54A     -0.480115  
      55A     -0.474208    56A     -0.441328    57A     -0.420553  
      58A     -0.398034    59A     -0.371727    60A     -0.368333  
      61A     -0.340392    62A     -0.332527  

    Virtual:                                                              

      63A     -0.057271    64A      0.006664    65A      0.023630  
      66A      0.032244    67A      0.035986    68A      0.039775  
      69A      0.048425    70A      0.050685    71A      0.057953  
      72A      0.060047    73A      0.065020    74A      0.074992  
      75A      0.077181    76A      0.080106    77A      0.090571  
      78A      0.093684    79A      0.100031    80A      0.106050  
      81A      0.107526    82A      0.112837    83A      0.115185  
      84A      0.118821    85A      0.121593    86A      0.127251  
      87A      0.130321    88A      0.132324    89A      0.135710  
      90A      0.143875    91A      0.147515    92A      0.150947  
      93A      0.152675    94A      0.157466    95A      0.163126  
      96A      0.165127    97A      0.167686    98A      0.169516  
      99A      0.174970   100A      0.178273   101A      0.178979  
     102A      0.181529   103A      0.187141   104A      0.192693  
     105A      0.199140   106A      0.202442   107A      0.206240  
     108A      0.209830   109A      0.214414   110A      0.216753  
     111A      0.222350   112A      0.227726   113A      0.231788  
     114A      0.233383   115A      0.237490   116A      0.239131  
     117A      0.242465   118A      0.250605   119A      0.253989  
     120A      0.256584   121A      0.261537   122A      0.263485  
     123A      0.268286   124A      0.273699   125A      0.275615  
     126A      0.278057   127A      0.280319   128A      0.283853  
     129A      0.287168   130A      0.288263   131A      0.292475  
     132A      0.299162   133A      0.305184   134A      0.308234  
     135A      0.311333   136A      0.318667   137A      0.321803  
     138A      0.326949   139A      0.331441   140A      0.336955  
     141A      0.340344   142A      0.343907   143A      0.348002  
     144A      0.348239   145A      0.354454   146A      0.358376  
     147A      0.366656   148A      0.369099   149A      0.372898  
     150A      0.374534   151A      0.378854   152A      0.384227  
     153A      0.386554   154A      0.388416   155A      0.397871  
     156A      0.401789   157A      0.409906   158A      0.411152  
     159A      0.413030   160A      0.418852   161A      0.424260  
     162A      0.430386   163A      0.436188   164A      0.439125  
     165A      0.443182   166A      0.445498   167A      0.455237  
     168A      0.464089   169A      0.468510   170A      0.477544  
     171A      0.478219   172A      0.484822   173A      0.488630  
     174A      0.494354   175A      0.496749   176A      0.500738  
     177A      0.503372   178A      0.509297   179A      0.511835  
     180A      0.521765   181A      0.525227   182A      0.529499  
     183A      0.535775   184A      0.538157   185A      0.540794  
     186A      0.546364   187A      0.551337   188A      0.558137  
     189A      0.563867   190A      0.571594   191A      0.574124  
     192A      0.578704   193A      0.587024   194A      0.592040  
     195A      0.597102   196A      0.602595   197A      0.605594  
     198A      0.613882   199A      0.619615   200A      0.627153  
     201A      0.630452   202A      0.633979   203A      0.635628  
     204A      0.638863   205A      0.645692   206A      0.647405  
     207A      0.650018   208A      0.656022   209A      0.662031  
     210A      0.670267   211A      0.672892   212A      0.676399  
     213A      0.680570   214A      0.681411   215A      0.690514  
     216A      0.694642   217A      0.699988   218A      0.703280  
     219A      0.708438   220A      0.712277   221A      0.720017  
     222A      0.726618   223A      0.734490   224A      0.743746  
     225A      0.757420   226A      0.760187   227A      0.763527  
     228A      0.767888   229A      0.773121   230A      0.785076  
     231A      0.791609   232A      0.797792   233A      0.804223  
     234A      0.809178   235A      0.818095   236A      0.818616  
     237A      0.832341   238A      0.833188   239A      0.837437  
     240A      0.840153   241A      0.850545   242A      0.853641  
     243A      0.856989   244A      0.867245   245A      0.878051  
     246A      0.885084   247A      0.895357   248A      0.904074  
     249A      0.905499   250A      0.922867   251A      0.926528  
     252A      0.931513   253A      0.945631   254A      0.950363  
     255A      0.955886   256A      0.964380   257A      0.977073  
     258A      0.987155   259A      0.994842   260A      1.006246  
     261A      1.009822   262A      1.019965   263A      1.030737  
     264A      1.039949   265A      1.048233   266A      1.057881  
     267A      1.071858   268A      1.081791   269A      1.084040  
     270A      1.092396   271A      1.101350   272A      1.111285  
     273A      1.122145   274A      1.124869   275A      1.140356  
     276A      1.147853   277A      1.152713   278A      1.163050  
     279A      1.170193   280A      1.184516   281A      1.188937  
     282A      1.204864   283A      1.215734   284A      1.218087  
     285A      1.230609   286A      1.236959   287A      1.248631  
     288A      1.257007   289A      1.262450   290A      1.276636  
     291A      1.280209   292A      1.298392   293A      1.305150  
     294A      1.309912   295A      1.316314   296A      1.323436  
     297A      1.337720   298A      1.343914   299A      1.356307  
     300A      1.361930   301A      1.365384   302A      1.371083  
     303A      1.379563   304A      1.393944   305A      1.398242  
     306A      1.402752   307A      1.415330   308A      1.424547  
     309A      1.432393   310A      1.438317   311A      1.442864  
     312A      1.462698   313A      1.470028   314A      1.478138  
     315A      1.484209   316A      1.494508   317A      1.504842  
     318A      1.508515   319A      1.532007   320A      1.545368  
     321A      1.548740   322A      1.554272   323A      1.560199  
     324A      1.565879   325A      1.574440   326A      1.594224  
     327A      1.595402   328A      1.604219   329A      1.608277  
     330A      1.611989   331A      1.621774   332A      1.626819  
     333A      1.634558   334A      1.653330   335A      1.656219  
     336A      1.668973   337A      1.675357   338A      1.684928  
     339A      1.695516   340A      1.700254   341A      1.716500  
     342A      1.717797   343A      1.722398   344A      1.737862  
     345A      1.748615   346A      1.757250   347A      1.768475  
     348A      1.777420   349A      1.785888   350A      1.799143  
     351A      1.800412   352A      1.820111   353A      1.828119  
     354A      1.834199   355A      1.846585   356A      1.862013  
     357A      1.867960   358A      1.879516   359A      1.888698  
     360A      1.893903   361A      1.897613   362A      1.918458  
     363A      1.931353   364A      1.938133   365A      1.946137  
     366A      1.951799   367A      1.962632   368A      1.971057  
     369A      1.987071   370A      1.999935   371A      2.001219  
     372A      2.020969   373A      2.023317   374A      2.027753  
     375A      2.045685   376A      2.057497   377A      2.066564  
     378A      2.079040   379A      2.091301   380A      2.097953  
     381A      2.104762   382A      2.123297   383A      2.136619  
     384A      2.140135   385A      2.150719   386A      2.170306  
     387A      2.175715   388A      2.201031   389A      2.208223  
     390A      2.215621   391A      2.225174   392A      2.237200  
     393A      2.251889   394A      2.276802   395A      2.291753  
     396A      2.310867   397A      2.316536   398A      2.330136  
     399A      2.338727   400A      2.343826   401A      2.353820  
     402A      2.367960   403A      2.376318   404A      2.389072  
     405A      2.415536   406A      2.423410   407A      2.446236  
     408A      2.493410   409A      2.502742   410A      2.529188  
     411A      2.550248   412A      2.554084   413A      2.584738  
     414A      2.590642   415A      2.600451   416A      2.619606  
     417A      2.625791   418A      2.648406   419A      2.668717  
     420A      2.681002   421A      2.691553   422A      2.700535  
     423A      2.712361   424A      2.736317   425A      2.750053  
     426A      2.787838   427A      2.832223   428A      2.860850  
     429A      2.959853   430A      2.976855   431A      3.025819  
     432A      3.039254   433A      3.114448   434A      3.166243  
     435A      3.192073   436A      3.381604   437A      3.391406  
     438A      3.399700   439A      3.448919   440A      3.466629  
     441A      3.487407   442A      3.505231   443A      3.512720  
     444A      3.538114   445A      3.553866   446A      3.570358  
     447A      3.572184   448A      3.614460   449A      3.705367  
     450A      3.712392   451A      3.766523   452A      3.853758  
     453A      3.881169   454A      3.999041   455A      4.080212  
     456A      4.151302   457A      4.475577   458A      4.625967  
     459A      4.672136   460A      4.704161   461A      4.727172  
     462A      4.749252   463A      4.758909   464A      4.792431  
     465A      4.822488   466A      4.868504   467A      4.904314  
     468A      5.000451   469A      5.045981   470A      5.069544  
     471A      5.227748   472A      5.461829   473A      5.789097  
     474A      6.616808   475A      7.088363   476A     33.574987  

    Final Occupation by Irrep:
              A 
    DOCC [    62 ]

  @DF-RKS Final Energy: -1188.20565687625185

   => Energetics <=

    Nuclear Repulsion Energy =           1178.1053402470731726
    One-Electron Energy =               -3970.6424973789403339
    Two-Electron Energy =                1693.8834679888148003
    DFT Exchange-Correlation Energy =     -89.5385185918961213
    Empirical Dispersion Energy =          -0.0134491413032513
    VV10 Nonlocal Energy =                  0.0000000000000000
    Total Energy =                      -1188.2056568762518509

Computation Completed


Properties will be evaluated at   0.000000,   0.000000,   0.000000 [a0]

Properties computed using the SCF density matrix

  Nuclear Dipole Moment: [e a0]
     X:    68.4455      Y:    -6.2868      Z:    34.7148

  Electronic Dipole Moment: [e a0]
     X:   -65.8896      Y:     5.8577      Z:   -35.0422

  Dipole Moment: [e a0]
     X:     2.5559      Y:    -0.4290      Z:    -0.3275     Total:     2.6123

  Dipole Moment: [D]
     X:     6.4965      Y:    -1.0905      Z:    -0.8324     Total:     6.6397


*** tstop() called on cpu-spot-dy-c5n2xlarge-1 at Tue Jun 22 16:59:20 2021
Module time:
	user time   =     921.71 seconds =      15.36 minutes
	system time =       8.78 seconds =       0.15 minutes
	total time  =        125 seconds =       2.08 minutes
Total time:
	user time   =    1526.16 seconds =      25.44 minutes
	system time =      16.21 seconds =       0.27 minutes
	total time  =        209 seconds =       3.48 minutes

       N-Body: Complex Energy (fragments = (1,), basis = (1, 2): -1188.20565687625185)

       N-Body: Computing complex (4/4) with fragments (1,) in the basis of fragments (1,).


*** tstart() called on cpu-spot-dy-c5n2xlarge-1
*** at Tue Jun 22 16:59:20 2021

   => Loading Basis Set <=

    Name: AUG-CC-PVDZ
    Role: ORBITAL
    Keyword: BASIS
    atoms 1             entry N          line   214 file /fsx/users/francis/anaconda3/envs/poltype-dev/share/psi4/basis/aug-cc-pvdz.gbs 
    atoms 2-3, 6-12, 14 entry C          line   178 file /fsx/users/francis/anaconda3/envs/poltype-dev/share/psi4/basis/aug-cc-pvdz.gbs 
    atoms 4-5           entry F          line   286 file /fsx/users/francis/anaconda3/envs/poltype-dev/share/psi4/basis/aug-cc-pvdz.gbs 
    atoms 13            entry S          line   698 file /fsx/users/francis/anaconda3/envs/poltype-dev/share/psi4/basis/aug-cc-pvdz.gbs 
    atoms 15-16         entry O          line   250 file /fsx/users/francis/anaconda3/envs/poltype-dev/share/psi4/basis/aug-cc-pvdz.gbs 
    atoms 17-23         entry H          line    36 file /fsx/users/francis/anaconda3/envs/poltype-dev/share/psi4/basis/aug-cc-pvdz.gbs 


         ---------------------------------------------------------
                                   SCF
               by Justin Turney, Rob Parrish, Andy Simmonett
                          and Daniel G. A. Smith
                              RKS Reference
                        8 Threads,  15258 MiB Core
         ---------------------------------------------------------

  ==> Geometry <==

    Molecular point group: c1
    Full point group: C1

    Geometry (in Angstrom), charge = 0, multiplicity = 1:

       Center              X                  Y                   Z               Mass       
    ------------   -----------------  -----------------  -----------------  -----------------
         N           -0.737192851381    -1.518349258881     0.249679727692    14.003074004430
         C           -2.002431851381    -1.267635258881     0.714229727692    12.000000000000
         C           -2.300213851381     0.220542741119     1.090228727692    12.000000000000
         F           -3.584162851381     0.526020741119     0.672871727692    18.998403162730
         F           -2.277486851381     0.309331741119     2.463484727692    18.998403162730
         C           -1.310473851381     1.297899741119     0.521939727692    12.000000000000
         C            0.009789148619     0.817194741119     0.050272727692    12.000000000000
         C            0.994448148619     1.736770741119    -0.371960272308    12.000000000000
         C            2.251173148619     1.297333741119    -0.806566272308    12.000000000000
         C            2.544178148619    -0.090135258881    -0.851880272308    12.000000000000
         C            1.543464148619    -1.014028258881    -0.481047272308    12.000000000000
         C            0.279659148619    -0.577488258881    -0.047366272308    12.000000000000
         S            4.098698148619    -0.758706258881    -1.365069272308    31.972071174400
         C            5.132029148619    -0.605504258881     0.113509727692    12.000000000000
         O           -2.804152851381    -2.179690258881     0.866121727692    15.994914619570
         O           -1.599949851381     2.492274741119     0.548934727692    15.994914619570
         H            2.992685148619     2.041146741119    -1.096729272308     1.007825032230
         H            0.755698148619     2.800138741119    -0.338343272308     1.007825032230
         H           -0.584747851381    -2.499009258881     0.059590727692     1.007825032230
         H            1.757894148619    -2.083055258881    -0.518536272308     1.007825032230
         H            5.356242148619     0.451007741119     0.289226727692     1.007825032230
         H            4.598835148619    -1.018446258881     0.975590727692     1.007825032230
         H            6.062292148619    -1.159407258881    -0.043012272308     1.007825032230

  Running in c1 symmetry.

  Rotational constants: A =      0.03518  B =      0.00827  C =      0.00729 [cm^-1]
  Rotational constants: A =   1054.58268  B =    247.94902  C =    218.54716 [MHz]
  Nuclear repulsion = 1178.105340247073173

  Charge       = 0
  Multiplicity = 1
  Electrons    = 124
  Nalpha       = 62
  Nbeta        = 62

  ==> Algorithm <==

  SCF Algorithm Type is DF.
  DIIS enabled.
  MOM disabled.
  Fractional occupation disabled.
  Guess Type is SAD.
  Energy threshold   = 1.00e-06
  Density threshold  = 1.00e-06
  Integral threshold = 0.00e+00

  ==> Primary Basis <==

  Basis Set: AUG-CC-PVDZ
    Blend: AUG-CC-PVDZ
    Number of shells: 181
    Number of basis function: 435
    Number of Cartesian functions: 467
    Spherical Harmonics?: true
    Max angular momentum: 2

  ==> DFT Potential <==

   => Composite Functional: WB97X-D <= 

    wB97X-D Hyb-GGA Exchange-Correlation Functional

    J.-D. Chai and M. Head-Gordon, Phys. Chem. Chem. Phys. 10, 6615 (2008)

    Deriv               =              1
    GGA                 =           TRUE
    Meta                =          FALSE

    Exchange Hybrid     =           TRUE
    MP2 Hybrid          =          FALSE

   => Exchange-Correlation Functionals <=

    1.0000   wB97D range-separated functional

   => Exact (HF) Exchange <=

    0.7780            HF,LR [omega = 0.2000]
    0.2220               HF 

   => Molecular Quadrature <=

    Radial Scheme          =       TREUTLER
    Pruning Scheme         =           FLAT
    Nuclear Scheme         =       TREUTLER

    BS radius alpha        =              1
    Pruning alpha          =              1
    Radial Points          =             75
    Spherical Points       =            302
    Total Points           =         520950
    Total Blocks           =           3838
    Max Points             =            256
    Max Functions          =            395

   => WB97X-D: Empirical Dispersion <=

    Chai and Head-Gordon Dispersion Correction
    Chai, J.-D.; Head-Gordon, M. (2010), J. Chem. Phys., 132: 6615-6620

        s6 =       1.000000

   => Loading Basis Set <=

    Name: (AUG-CC-PVDZ AUX)
    Role: JKFIT
    Keyword: DF_BASIS_SCF
    atoms 1             entry N          line   212 file /fsx/users/francis/anaconda3/envs/poltype-dev/share/psi4/basis/aug-cc-pvdz-jkfit.gbs 
    atoms 2-3, 6-12, 14 entry C          line   154 file /fsx/users/francis/anaconda3/envs/poltype-dev/share/psi4/basis/aug-cc-pvdz-jkfit.gbs 
    atoms 4-5           entry F          line   328 file /fsx/users/francis/anaconda3/envs/poltype-dev/share/psi4/basis/aug-cc-pvdz-jkfit.gbs 
    atoms 13            entry S          line   690 file /fsx/users/francis/anaconda3/envs/poltype-dev/share/psi4/basis/aug-cc-pvdz-jkfit.gbs 
    atoms 15-16         entry O          line   270 file /fsx/users/francis/anaconda3/envs/poltype-dev/share/psi4/basis/aug-cc-pvdz-jkfit.gbs 
    atoms 17-23         entry H          line    70 file /fsx/users/francis/anaconda3/envs/poltype-dev/share/psi4/basis/aug-cc-pvdz-jkfit.gbs 

  ==> Pre-Iterations <==

   -------------------------------------------------------
    Irrep   Nso     Nmo     Nalpha   Nbeta   Ndocc  Nsocc
   -------------------------------------------------------
     A        435     435       0       0       0       0
   -------------------------------------------------------
    Total     435     435      62      62      62       0
   -------------------------------------------------------

  ==> Integral Setup <==

  ==> DiskDFJK: Density-Fitted J/K Matrices <==

    J tasked:                  Yes
    K tasked:                  Yes
    wK tasked:                 Yes
    Omega:               2.000E-01
    OpenMP threads:              8
    Integrals threads:           8
    Memory [MiB]:             6790
    Algorithm:                Core
    Integral Cache:           NONE
    Schwarz Cutoff:          1E-12
    Fitting Condition:       1E-10

   => Auxiliary Basis Set <=

  Basis Set: (AUG-CC-PVDZ AUX)
    Blend: AUG-CC-PVDZ-JKFIT
    Number of shells: 544
    Number of basis function: 1642
    Number of Cartesian functions: 1910
    Spherical Harmonics?: true
    Max angular momentum: 3

  Cached 100.0% of DFT collocation blocks in 4.545 [GiB].

  Minimum eigenvalue in the overlap matrix is 1.4648872092E-06.
  Using Symmetric Orthogonalization.

  SCF Guess: Superposition of Atomic Densities via on-the-fly atomic UHF.

  ==> Iterations <==

                           Total Energy        Delta E     RMS |[F,P]|

   @DF-RKS iter SAD: -1187.39120569404281   -1.18739e+03   0.00000e+00 
   @DF-RKS iter   1: -1187.69038722260530   -2.99182e-01   2.42064e-03 DIIS
   @DF-RKS iter   2: -1187.69848826513044   -8.10104e-03   2.63125e-03 DIIS
   @DF-RKS iter   3: -1188.17457419777838   -4.76086e-01   6.19759e-04 DIIS
   @DF-RKS iter   4: -1188.20282347607986   -2.82493e-02   1.62120e-04 DIIS
   @DF-RKS iter   5: -1188.20502036614130   -2.19689e-03   4.64159e-05 DIIS
   @DF-RKS iter   6: -1188.20524351771678   -2.23152e-04   1.57684e-05 DIIS
   @DF-RKS iter   7: -1188.20526964574356   -2.61280e-05   4.89149e-06 DIIS
   @DF-RKS iter   8: -1188.20527460059179   -4.95485e-06   1.80172e-06 DIIS
   @DF-RKS iter   9: -1188.20527580761791   -1.20703e-06   1.15588e-06 DIIS
   @DF-RKS iter  10: -1188.20527605326151   -2.45644e-07   4.11494e-07 DIIS
  Energy and wave function converged.


  ==> Post-Iterations <==

    Orbital Energies [Eh]
    ---------------------

    Doubly Occupied:                                                      

       1A    -89.069951     2A    -24.878946     3A    -24.868362  
       4A    -19.303956     5A    -19.288023     6A    -14.536963  
       7A    -10.509440     8A    -10.455540     9A    -10.436379  
      10A    -10.408001    11A    -10.379103    12A    -10.356730  
      13A    -10.352227    14A    -10.350257    15A    -10.345749  
      16A    -10.343933    17A     -8.087469    18A     -6.037339  
      19A     -6.033211    20A     -6.026242    21A     -1.384555  
      22A     -1.326831    23A     -1.190382    24A     -1.180041  
      25A     -1.094149    26A     -1.000718    27A     -0.938556  
      28A     -0.903716    29A     -0.888701    30A     -0.866780  
      31A     -0.792787    32A     -0.765897    33A     -0.752231  
      34A     -0.740200    35A     -0.695597    36A     -0.678294  
      37A     -0.668139    38A     -0.643704    39A     -0.628686  
      40A     -0.591077    41A     -0.579605    42A     -0.568287  
      43A     -0.563334    44A     -0.557365    45A     -0.555015  
      46A     -0.549744    47A     -0.538824    48A     -0.534015  
      49A     -0.527423    50A     -0.517053    51A     -0.511491  
      52A     -0.500837    53A     -0.494192    54A     -0.480166  
      55A     -0.474275    56A     -0.441368    57A     -0.420590  
      58A     -0.398085    59A     -0.371783    60A     -0.368363  
      61A     -0.340427    62A     -0.332550  

    Virtual:                                                              

      63A     -0.057326    64A      0.006649    65A      0.023892  
      66A      0.032490    67A      0.036421    68A      0.041189  
      69A      0.048625    70A      0.057416    71A      0.058582  
      72A      0.064852    73A      0.072611    74A      0.077321  
      75A      0.082790    76A      0.090451    77A      0.093723  
      78A      0.101605    79A      0.105622    80A      0.110990  
      81A      0.111572    82A      0.115804    83A      0.119780  
      84A      0.123578    85A      0.129380    86A      0.133076  
      87A      0.136331    88A      0.139648    89A      0.146952  
      90A      0.150402    91A      0.154978    92A      0.158312  
      93A      0.159027    94A      0.165632    95A      0.168686  
      96A      0.172019    97A      0.174614    98A      0.174917  
      99A      0.180820   100A      0.181731   101A      0.188202  
     102A      0.192599   103A      0.198679   104A      0.204461  
     105A      0.209462   106A      0.212972   107A      0.215807  
     108A      0.221936   109A      0.226108   110A      0.229214  
     111A      0.232818   112A      0.236688   113A      0.239185  
     114A      0.246387   115A      0.248861   116A      0.252296  
     117A      0.258520   118A      0.260140   119A      0.263307  
     120A      0.268748   121A      0.272749   122A      0.278169  
     123A      0.279665   124A      0.281961   125A      0.287651  
     126A      0.294497   127A      0.297388   128A      0.302712  
     129A      0.306557   130A      0.309156   131A      0.310864  
     132A      0.321643   133A      0.324473   134A      0.327289  
     135A      0.328468   136A      0.336089   137A      0.340075  
     138A      0.343909   139A      0.347661   140A      0.352244  
     141A      0.360865   142A      0.363512   143A      0.367145  
     144A      0.373968   145A      0.375573   146A      0.379170  
     147A      0.382550   148A      0.385653   149A      0.388755  
     150A      0.390243   151A      0.402486   152A      0.407283  
     153A      0.411888   154A      0.414114   155A      0.416680  
     156A      0.419824   157A      0.431563   158A      0.435957  
     159A      0.440140   160A      0.442824   161A      0.450625  
     162A      0.461569   163A      0.465526   164A      0.473075  
     165A      0.479837   166A      0.485065   167A      0.487982  
     168A      0.490890   169A      0.497342   170A      0.504121  
     171A      0.512191   172A      0.515385   173A      0.522083  
     174A      0.531269   175A      0.533732   176A      0.540583  
     177A      0.542746   178A      0.547514   179A      0.551124  
     180A      0.563316   181A      0.567236   182A      0.577393  
     183A      0.581658   184A      0.589353   185A      0.595364  
     186A      0.601615   187A      0.604891   188A      0.614835  
     189A      0.618642   190A      0.621699   191A      0.628357  
     192A      0.635537   193A      0.636209   194A      0.640154  
     195A      0.643853   196A      0.652127   197A      0.657215  
     198A      0.663010   199A      0.667345   200A      0.673112  
     201A      0.675616   202A      0.680267   203A      0.687934  
     204A      0.693581   205A      0.698129   206A      0.703914  
     207A      0.708922   208A      0.718257   209A      0.727853  
     210A      0.733236   211A      0.743902   212A      0.751512  
     213A      0.752756   214A      0.754592   215A      0.764952  
     216A      0.770425   217A      0.773879   218A      0.781796  
     219A      0.790584   220A      0.795059   221A      0.802428  
     222A      0.805403   223A      0.813649   224A      0.820533  
     225A      0.827209   226A      0.836543   227A      0.837994  
     228A      0.842200   229A      0.850117   230A      0.854854  
     231A      0.868925   232A      0.872949   233A      0.882027  
     234A      0.891567   235A      0.901692   236A      0.915006  
     237A      0.921427   238A      0.929866   239A      0.941543  
     240A      0.948677   241A      0.951572   242A      0.970823  
     243A      0.972229   244A      0.987983   245A      0.995869  
     246A      1.000848   247A      1.013891   248A      1.028298  
     249A      1.036623   250A      1.044344   251A      1.057068  
     252A      1.066533   253A      1.072569   254A      1.084672  
     255A      1.097478   256A      1.099245   257A      1.107730  
     258A      1.114231   259A      1.132903   260A      1.140087  
     261A      1.146293   262A      1.147421   263A      1.159503  
     264A      1.179253   265A      1.191026   266A      1.195813  
     267A      1.215422   268A      1.218020   269A      1.226643  
     270A      1.243611   271A      1.260133   272A      1.271854  
     273A      1.275917   274A      1.285979   275A      1.291128  
     276A      1.298625   277A      1.315559   278A      1.319853  
     279A      1.337245   280A      1.347460   281A      1.356921  
     282A      1.359291   283A      1.364799   284A      1.386119  
     285A      1.388298   286A      1.408151   287A      1.412863  
     288A      1.422266   289A      1.432657   290A      1.443356  
     291A      1.458764   292A      1.469313   293A      1.472245  
     294A      1.485212   295A      1.497141   296A      1.503660  
     297A      1.522329   298A      1.532688   299A      1.541627  
     300A      1.548130   301A      1.554164   302A      1.562107  
     303A      1.564898   304A      1.581012   305A      1.583544  
     306A      1.591029   307A      1.605059   308A      1.607810  
     309A      1.610361   310A      1.619715   311A      1.628891  
     312A      1.636671   313A      1.647526   314A      1.653604  
     315A      1.667633   316A      1.672260   317A      1.685003  
     318A      1.691090   319A      1.697370   320A      1.715860  
     321A      1.729240   322A      1.732521   323A      1.735918  
     324A      1.752300   325A      1.756369   326A      1.765112  
     327A      1.780455   328A      1.791108   329A      1.807586  
     330A      1.817653   331A      1.822989   332A      1.837770  
     333A      1.844773   334A      1.862778   335A      1.874568  
     336A      1.883356   337A      1.886144   338A      1.894180  
     339A      1.911629   340A      1.917231   341A      1.929372  
     342A      1.931169   343A      1.947658   344A      1.959073  
     345A      1.964163   346A      1.970419   347A      1.984078  
     348A      1.993700   349A      1.998658   350A      2.018370  
     351A      2.022307   352A      2.036269   353A      2.051313  
     354A      2.061233   355A      2.076188   356A      2.084278  
     357A      2.093561   358A      2.094081   359A      2.122938  
     360A      2.131408   361A      2.138311   362A      2.155604  
     363A      2.169451   364A      2.171339   365A      2.199788  
     366A      2.203235   367A      2.217625   368A      2.225128  
     369A      2.236144   370A      2.269496   371A      2.285181  
     372A      2.304524   373A      2.310309   374A      2.324990  
     375A      2.334351   376A      2.341918   377A      2.352917  
     378A      2.364631   379A      2.385329   380A      2.405307  
     381A      2.411730   382A      2.443799   383A      2.477951  
     384A      2.496130   385A      2.515305   386A      2.542174  
     387A      2.566759   388A      2.597427   389A      2.612598  
     390A      2.642082   391A      2.662586   392A      2.665246  
     393A      2.685402   394A      2.694738   395A      2.710246  
     396A      2.728588   397A      2.748974   398A      2.775760  
     399A      2.852577   400A      2.945998   401A      2.959810  
     402A      3.013251   403A      3.025245   404A      3.095017  
     405A      3.125626   406A      3.162296   407A      3.354148  
     408A      3.379268   409A      3.387709   410A      3.429532  
     411A      3.458560   412A      3.469753   413A      3.485506  
     414A      3.502473   415A      3.535903   416A      3.551877  
     417A      3.561273   418A      3.598127   419A      3.682747  
     420A      3.703679   421A      3.759058   422A      3.831357  
     423A      3.858700   424A      3.970723   425A      4.456319  
     426A      4.623592   427A      4.664167   428A      4.688325  
     429A      4.722754   430A      4.746293   431A      4.751475  
     432A      4.777991   433A      4.818762   434A      4.850821  
     435A      4.900299  

    Final Occupation by Irrep:
              A 
    DOCC [    62 ]

  @DF-RKS Final Energy: -1188.20527605326151

   => Energetics <=

    Nuclear Repulsion Energy =           1178.1053402470731726
    One-Electron Energy =               -3970.6363439116030349
    Two-Electron Energy =                1693.8774029662852172
    DFT Exchange-Correlation Energy =     -89.5382262137138554
    Empirical Dispersion Energy =          -0.0134491413032513
    VV10 Nonlocal Energy =                  0.0000000000000000
    Total Energy =                      -1188.2052760532615139

Computation Completed


Properties will be evaluated at   0.355508,  -0.033815,   0.315481 [a0]

Properties computed using the SCF density matrix

  Nuclear Dipole Moment: [e a0]
     X:    24.3625      Y:    -2.0937      Z:    -4.4049

  Electronic Dipole Moment: [e a0]
     X:   -21.8058      Y:     1.6646      Z:     4.0768

  Dipole Moment: [e a0]
     X:     2.5567      Y:    -0.4292      Z:    -0.3282     Total:     2.6132

  Dipole Moment: [D]
     X:     6.4985      Y:    -1.0908      Z:    -0.8341     Total:     6.6420


*** tstop() called on cpu-spot-dy-c5n2xlarge-1 at Tue Jun 22 17:00:54 2021
Module time:
	user time   =     691.63 seconds =      11.53 minutes
	system time =       7.58 seconds =       0.13 minutes
	total time  =         94 seconds =       1.57 minutes
Total time:
	user time   =    2217.84 seconds =      36.96 minutes
	system time =      23.79 seconds =       0.40 minutes
	total time  =        303 seconds =       5.05 minutes

       N-Body: Complex Energy (fragments = (1,), basis = (1,): -1188.20527605326151)

   ==> N-Body: Now computing 2-body complexes <==


       N-Body: Computing complex (1/1) with fragments (1, 2) in the basis of fragments (1, 2).


*** tstart() called on cpu-spot-dy-c5n2xlarge-1
*** at Tue Jun 22 17:00:54 2021

   => Loading Basis Set <=

    Name: AUG-CC-PVDZ
    Role: ORBITAL
    Keyword: BASIS
    atoms 1             entry N          line   214 file /fsx/users/francis/anaconda3/envs/poltype-dev/share/psi4/basis/aug-cc-pvdz.gbs 
    atoms 2-3, 6-12, 14 entry C          line   178 file /fsx/users/francis/anaconda3/envs/poltype-dev/share/psi4/basis/aug-cc-pvdz.gbs 
    atoms 4-5           entry F          line   286 file /fsx/users/francis/anaconda3/envs/poltype-dev/share/psi4/basis/aug-cc-pvdz.gbs 
    atoms 13            entry S          line   698 file /fsx/users/francis/anaconda3/envs/poltype-dev/share/psi4/basis/aug-cc-pvdz.gbs 
    atoms 15-16, 24     entry O          line   250 file /fsx/users/francis/anaconda3/envs/poltype-dev/share/psi4/basis/aug-cc-pvdz.gbs 
    atoms 17-23, 25-26  entry H          line    36 file /fsx/users/francis/anaconda3/envs/poltype-dev/share/psi4/basis/aug-cc-pvdz.gbs 


         ---------------------------------------------------------
                                   SCF
               by Justin Turney, Rob Parrish, Andy Simmonett
                          and Daniel G. A. Smith
                              RKS Reference
                        8 Threads,  15258 MiB Core
         ---------------------------------------------------------

  ==> Geometry <==

    Molecular point group: c1
    Full point group: C1

    Geometry (in Angstrom), charge = 0, multiplicity = 1:

       Center              X                  Y                   Z               Mass       
    ------------   -----------------  -----------------  -----------------  -----------------
         N           -0.737192851381    -1.518349258881     0.249679727692    14.003074004430
         C           -2.002431851381    -1.267635258881     0.714229727692    12.000000000000
         C           -2.300213851381     0.220542741119     1.090228727692    12.000000000000
[...]
         H            5.356242148619     0.451007741119     0.289226727692     1.007825032230
         H            4.598835148619    -1.018446258881     0.975590727692     1.007825032230
         H            6.062292148619    -1.159407258881    -0.043012272308     1.007825032230
         O           -2.495914151381     0.197946241119    -2.235575472308    15.994914619570
         H           -3.420068151381     0.217960241119    -1.976084472308     1.007825032230
         H           -2.330873151381     0.955272241119    -2.799223472308     1.007825032230

  Running in c1 symmetry.

  Rotational constants: A =      0.02700  B =      0.00750  C =      0.00709 [cm^-1]
  Rotational constants: A =    809.33438  B =    224.94527  C =    212.40323 [MHz]
  Nuclear repulsion = 1339.803757404485395

  Charge       = 0
  Multiplicity = 1
  Electrons    = 134
  Nalpha       = 67
  Nbeta        = 67

  ==> Algorithm <==

  SCF Algorithm Type is DF.
  DIIS enabled.
  MOM disabled.
  Fractional occupation disabled.
  Guess Type is SAD.
  Energy threshold   = 1.00e-06
  Density threshold  = 1.00e-06
  Integral threshold = 0.00e+00

  ==> Primary Basis <==

  Basis Set: AUG-CC-PVDZ
    Blend: AUG-CC-PVDZ
    Number of shells: 200
    Number of basis function: 476
    Number of Cartesian functions: 510
    Spherical Harmonics?: true
    Max angular momentum: 2

  ==> DFT Potential <==

   => Composite Functional: WB97X-D <= 

    wB97X-D Hyb-GGA Exchange-Correlation Functional

    J.-D. Chai and M. Head-Gordon, Phys. Chem. Chem. Phys. 10, 6615 (2008)

    Deriv               =              1
    GGA                 =           TRUE
    Meta                =          FALSE

    Exchange Hybrid     =           TRUE
    MP2 Hybrid          =          FALSE

   => Exchange-Correlation Functionals <=

    1.0000   wB97D range-separated functional

   => Exact (HF) Exchange <=

    0.7780            HF,LR [omega = 0.2000]
    0.2220               HF 

   => Molecular Quadrature <=

    Radial Scheme          =       TREUTLER
    Pruning Scheme         =           FLAT
    Nuclear Scheme         =       TREUTLER

    BS radius alpha        =              1
    Pruning alpha          =              1
    Radial Points          =             75
    Spherical Points       =            302
    Total Points           =         588900
    Total Blocks           =           4358
    Max Points             =            256
    Max Functions          =            426

   => WB97X-D: Empirical Dispersion <=

    Chai and Head-Gordon Dispersion Correction
    Chai, J.-D.; Head-Gordon, M. (2010), J. Chem. Phys., 132: 6615-6620

        s6 =       1.000000

   => Loading Basis Set <=

    Name: (AUG-CC-PVDZ AUX)
    Role: JKFIT
    Keyword: DF_BASIS_SCF
    atoms 1             entry N          line   212 file /fsx/users/francis/anaconda3/envs/poltype-dev/share/psi4/basis/aug-cc-pvdz-jkfit.gbs 
    atoms 2-3, 6-12, 14 entry C          line   154 file /fsx/users/francis/anaconda3/envs/poltype-dev/share/psi4/basis/aug-cc-pvdz-jkfit.gbs 
    atoms 4-5           entry F          line   328 file /fsx/users/francis/anaconda3/envs/poltype-dev/share/psi4/basis/aug-cc-pvdz-jkfit.gbs 
    atoms 13            entry S          line   690 file /fsx/users/francis/anaconda3/envs/poltype-dev/share/psi4/basis/aug-cc-pvdz-jkfit.gbs 
    atoms 15-16, 24     entry O          line   270 file /fsx/users/francis/anaconda3/envs/poltype-dev/share/psi4/basis/aug-cc-pvdz-jkfit.gbs 
    atoms 17-23, 25-26  entry H          line    70 file /fsx/users/francis/anaconda3/envs/poltype-dev/share/psi4/basis/aug-cc-pvdz-jkfit.gbs 

  ==> Pre-Iterations <==

   -------------------------------------------------------
    Irrep   Nso     Nmo     Nalpha   Nbeta   Ndocc  Nsocc
   -------------------------------------------------------
     A        476     476       0       0       0       0
   -------------------------------------------------------
    Total     476     476      67      67      67       0
   -------------------------------------------------------

  ==> Integral Setup <==

  ==> DiskDFJK: Density-Fitted J/K Matrices <==

    J tasked:                  Yes
    K tasked:                  Yes
    wK tasked:                 Yes
    Omega:               2.000E-01
    OpenMP threads:              8
    Integrals threads:           8
    Memory [MiB]:             5887
    Algorithm:                Core
    Integral Cache:           NONE
    Schwarz Cutoff:          1E-12
    Fitting Condition:       1E-10

   => Auxiliary Basis Set <=

  Basis Set: (AUG-CC-PVDZ AUX)
    Blend: AUG-CC-PVDZ-JKFIT
    Number of shells: 596
    Number of basis function: 1792
    Number of Cartesian functions: 2081
    Spherical Harmonics?: true
    Max angular momentum: 3

  Cached 100.0% of DFT collocation blocks in 5.426 [GiB].

  Minimum eigenvalue in the overlap matrix is 1.3799443345E-06.
  Using Symmetric Orthogonalization.

  SCF Guess: Superposition of Atomic Densities via on-the-fly atomic UHF.

  ==> Iterations <==

                           Total Energy        Delta E     RMS |[F,P]|

   @DF-RKS iter SAD: -1263.41035816288650   -1.26341e+03   0.00000e+00 
   @DF-RKS iter   1: -1263.98494237921295   -5.74584e-01   2.54423e-03 DIIS
   @DF-RKS iter   2: -1263.97912165053731    5.82073e-03   2.75759e-03 DIIS
   @DF-RKS iter   3: -1264.60765330838899   -6.28532e-01   5.22881e-04 DIIS
   @DF-RKS iter   4: -1264.63055461242857   -2.29013e-02   1.88805e-04 DIIS
   @DF-RKS iter   5: -1264.63376380149657   -3.20919e-03   5.26801e-05 DIIS
   @DF-RKS iter   6: -1264.63405563266974   -2.91831e-04   1.38524e-05 DIIS
   @DF-RKS iter   7: -1264.63408388729886   -2.82546e-05   4.63789e-06 DIIS
   @DF-RKS iter   8: -1264.63408897263821   -5.08534e-06   1.90265e-06 DIIS
   @DF-RKS iter   9: -1264.63409018438529   -1.21175e-06   1.21541e-06 DIIS
   @DF-RKS iter  10: -1264.63409052044085   -3.36056e-07   3.78912e-07 DIIS
  Energy and wave function converged.


  ==> Post-Iterations <==

    Orbital Energies [Eh]
    ---------------------

    Doubly Occupied:                                                      

       1A    -89.065343     2A    -24.875072     3A    -24.867234  
       4A    -19.297635     5A    -19.289409     6A    -19.281490  
       7A    -14.528450     8A    -10.504582     9A    -10.449138  
      10A    -10.431150    11A    -10.400361    12A    -10.372716  
      13A    -10.349650    14A    -10.345897    15A    -10.343602  
      16A    -10.341698    17A    -10.338047    18A     -8.082838  
      19A     -6.032700    20A     -6.028578    21A     -6.021631  
      22A     -1.381660    23A     -1.324780    24A     -1.183582  
      25A     -1.174167    26A     -1.130852    27A     -1.085810  
      28A     -0.994033    29A     -0.932423    30A     -0.897563  
      31A     -0.882162    32A     -0.861375    33A     -0.787519  
      34A     -0.759166    35A     -0.745477    36A     -0.735122  
      37A     -0.690372    38A     -0.672616    39A     -0.665247  
      40A     -0.643403    41A     -0.636970    42A     -0.623071  
      43A     -0.584715    44A     -0.574451    45A     -0.561875  
      46A     -0.557574    47A     -0.551479    48A     -0.549979  
      49A     -0.545804    50A     -0.534891    51A     -0.529950  
      52A     -0.522972    53A     -0.515272    54A     -0.505884  
      55A     -0.496241    56A     -0.491504    57A     -0.488988  
      58A     -0.474559    59A     -0.468486    60A     -0.435179  
      61A     -0.418468    62A     -0.414819    63A     -0.392177  
      64A     -0.366208    65A     -0.361933    66A     -0.333555  
      67A     -0.327366  

    Virtual:                                                              

      68A     -0.049191    69A      0.012967    70A      0.026573  
      71A      0.034052    72A      0.036654    73A      0.042445  
      74A      0.048889    75A      0.051603    76A      0.059981  
      77A      0.064672    78A      0.067157    79A      0.073809  
      80A      0.079558    81A      0.080260    82A      0.093810  
      83A      0.095840    84A      0.103364    85A      0.108213  
      86A      0.110924    87A      0.117189    88A      0.117466  
      89A      0.121133    90A      0.125156    91A      0.130355  
      92A      0.132874    93A      0.134207    94A      0.139858  
      95A      0.145462    96A      0.149455    97A      0.152617  
      98A      0.155005    99A      0.159801   100A      0.164289  
     101A      0.167571   102A      0.169976   103A      0.174579  
     104A      0.176518   105A      0.181021   106A      0.182433  
     107A      0.184004   108A      0.189467   109A      0.196738  
     110A      0.198982   111A      0.203539   112A      0.205632  
     113A      0.213450   114A      0.214964   115A      0.219756  
     116A      0.223853   117A      0.226301   118A      0.231749  
     119A      0.234593   120A      0.238667   121A      0.242526  
     122A      0.245989   123A      0.252277   124A      0.256575  
     125A      0.261385   126A      0.266020   127A      0.268651  
     128A      0.269963   129A      0.276078   130A      0.276623  
     131A      0.280146   132A      0.283006   133A      0.283217  
     134A      0.285630   135A      0.292182   136A      0.294356  
     137A      0.300036   138A      0.305531   139A      0.311590  
     140A      0.312998   141A      0.317705   142A      0.320980  
     143A      0.321885   144A      0.330057   145A      0.333404  
     146A      0.338981   147A      0.344881   148A      0.351330  
     149A      0.351952   150A      0.355741   151A      0.360193  
     152A      0.366325   153A      0.369158   154A      0.370385  
     155A      0.377140   156A      0.381867   157A      0.385268  
     158A      0.385861   159A      0.388875   160A      0.396045  
     161A      0.400027   162A      0.404945   163A      0.408754  
     164A      0.410411   165A      0.418113   166A      0.421136  
     167A      0.421744   168A      0.432537   169A      0.433378  
     170A      0.439578   171A      0.443460   172A      0.447880  
     173A      0.455091   174A      0.462230   175A      0.469647  
     176A      0.472767   177A      0.477952   178A      0.486560  
     179A      0.489312   180A      0.494194   181A      0.499841  
     182A      0.500498   183A      0.511193   184A      0.514047  
     185A      0.517636   186A      0.522048   187A      0.528748  
     188A      0.534297   189A      0.537690   190A      0.540753  
     191A      0.548280   192A      0.552212   193A      0.558810  
     194A      0.563974   195A      0.570212   196A      0.576267  
     197A      0.581799   198A      0.582642   199A      0.588805  
     200A      0.591709   201A      0.601140   202A      0.606198  
     203A      0.612593   204A      0.619917   205A      0.621406  
     206A      0.627422   207A      0.632185   208A      0.634406  
     209A      0.639496   210A      0.643601   211A      0.648512  
     212A      0.651316   213A      0.657781   214A      0.659267  
     215A      0.663567   216A      0.675570   217A      0.680385  
     218A      0.683112   219A      0.684682   220A      0.690359  
     221A      0.695679   222A      0.700356   223A      0.703943  
     224A      0.712561   225A      0.714398   226A      0.721630  
     227A      0.730513   228A      0.733330   229A      0.737835  
     230A      0.750086   231A      0.760562   232A      0.766147  
     233A      0.771807   234A      0.778701   235A      0.780200  
     236A      0.785265   237A      0.795866   238A      0.802326  
     239A      0.812300   240A      0.817821   241A      0.818269  
     242A      0.833104   243A      0.836228   244A      0.838430  
     245A      0.842604   246A      0.849380   247A      0.856693  
     248A      0.860552   249A      0.863246   250A      0.870533  
     251A      0.878658   252A      0.891119   253A      0.894161  
     254A      0.902394   255A      0.909771   256A      0.914970  
     257A      0.929753   258A      0.929948   259A      0.947008  
     260A      0.954984   261A      0.957746   262A      0.966989  
     263A      0.981208   264A      0.984884   265A      0.998377  
     266A      1.005431   267A      1.011635   268A      1.023660  
     269A      1.037457   270A      1.044090   271A      1.057644  
     272A      1.064928   273A      1.075984   274A      1.081032  
     275A      1.088655   276A      1.093222   277A      1.095945  
     278A      1.106540   279A      1.110859   280A      1.120357  
     281A      1.134105   282A      1.143061   283A      1.154368  
     284A      1.154784   285A      1.161494   286A      1.167037  
     287A      1.181042   288A      1.191956   289A      1.206603  
     290A      1.217864   291A      1.222443   292A      1.235400  
     293A      1.238519   294A      1.260839   295A      1.268578  
     296A      1.281783   297A      1.289129   298A      1.296548  
     299A      1.304887   300A      1.309273   301A      1.315258  
     302A      1.329301   303A      1.339001   304A      1.345344  
     305A      1.357186   306A      1.364591   307A      1.374206  
     308A      1.384402   309A      1.386173   310A      1.393101  
     311A      1.416630   312A      1.420654   313A      1.425499  
     314A      1.439522   315A      1.445136   316A      1.455414  
     317A      1.458364   318A      1.472461   319A      1.483954  
     320A      1.490998   321A      1.496524   322A      1.505225  
     323A      1.513763   324A      1.534879   325A      1.544162  
     326A      1.552745   327A      1.562551   328A      1.565123  
     329A      1.570842   330A      1.582845   331A      1.592882  
     332A      1.606198   333A      1.607381   334A      1.609550  
     335A      1.615283   336A      1.626107   337A      1.629620  
     338A      1.639360   339A      1.650773   340A      1.659583  
     341A      1.672319   342A      1.680544   343A      1.686730  
     344A      1.697338   345A      1.704217   346A      1.709578  
     347A      1.721402   348A      1.727009   349A      1.740663  
     350A      1.749210   351A      1.759214   352A      1.769507  
     353A      1.773564   354A      1.790422   355A      1.800226  
     356A      1.817810   357A      1.823228   358A      1.833230  
     359A      1.840859   360A      1.849079   361A      1.860012  
     362A      1.864670   363A      1.874091   364A      1.884081  
     365A      1.894999   366A      1.901316   367A      1.906164  
     368A      1.921041   369A      1.934432   370A      1.947292  
     371A      1.948937   372A      1.955350   373A      1.967403  
     374A      1.976814   375A      1.985495   376A      1.991643  
     377A      2.002890   378A      2.005498   379A      2.021683  
     380A      2.030898   381A      2.036983   382A      2.060972  
     383A      2.066847   384A      2.075350   385A      2.080938  
     386A      2.095445   387A      2.102426   388A      2.106706  
     389A      2.120627   390A      2.135698   391A      2.147433  
     392A      2.155358   393A      2.171530   394A      2.178924  
     395A      2.198406   396A      2.209308   397A      2.214073  
     398A      2.228977   399A      2.236560   400A      2.247297  
     401A      2.278211   402A      2.289389   403A      2.297569  
     404A      2.309273   405A      2.318850   406A      2.324471  
     407A      2.338317   408A      2.344396   409A      2.351256  
     410A      2.359115   411A      2.373629   412A      2.407525  
     413A      2.425030   414A      2.434828   415A      2.436568  
     416A      2.452788   417A      2.497719   418A      2.508908  
     419A      2.527011   420A      2.543104   421A      2.596618  
     422A      2.603114   423A      2.617928   424A      2.648845  
     425A      2.659033   426A      2.673976   427A      2.694508  
     428A      2.698490   429A      2.711315   430A      2.717222  
     431A      2.741892   432A      2.757644   433A      2.810936  
     434A      2.848707   435A      2.866948   436A      2.964042  
     437A      2.986669   438A      3.030470   439A      3.051299  
     440A      3.117980   441A      3.171828   442A      3.201013  
     443A      3.385199   444A      3.392889   445A      3.404050  
     446A      3.436838   447A      3.452054   448A      3.466504  
     449A      3.472157   450A      3.485649   451A      3.507922  
     452A      3.515780   453A      3.525518   454A      3.570471  
     455A      3.579764   456A      3.598122   457A      3.626937  
     458A      3.707509   459A      3.718374   460A      3.771223  
     461A      3.811927   462A      3.870009   463A      3.896746  
     464A      4.007842   465A      4.034845   466A      4.482053  
     467A      4.628659   468A      4.674518   469A      4.713658  
     470A      4.728625   471A      4.752523   472A      4.764462  
     473A      4.797093   474A      4.825372   475A      4.880065  
     476A      4.906687  

    Final Occupation by Irrep:
              A 
    DOCC [    67 ]

  @DF-RKS Final Energy: -1264.63409052044085

   => Energetics <=

    Nuclear Repulsion Energy =           1339.8037574044853955
    One-Electron Energy =               -4399.2192278168267876
    Two-Electron Energy =                1890.8120390104347734
    DFT Exchange-Correlation Energy =     -96.0143225876095983
    Empirical Dispersion Energy =          -0.0163365309248718
    VV10 Nonlocal Energy =                  0.0000000000000000
    Total Energy =                      -1264.6340905204408500

Computation Completed


Properties will be evaluated at   0.000000,   0.000000,   0.000000 [a0]

Properties computed using the SCF density matrix

  Nuclear Dipole Moment: [e a0]
     X:    19.8450      Y:    -1.0772      Z:    -8.1063

  Electronic Dipole Moment: [e a0]
     X:   -17.9055      Y:     1.0935      Z:     7.4634

  Dipole Moment: [e a0]
     X:     1.9395      Y:     0.0163      Z:    -0.6428     Total:     2.0433

  Dipole Moment: [D]
     X:     4.9297      Y:     0.0414      Z:    -1.6339     Total:     5.1936


*** tstop() called on cpu-spot-dy-c5n2xlarge-1 at Tue Jun 22 17:03:06 2021
Module time:
	user time   =     905.62 seconds =      15.09 minutes
	system time =       9.62 seconds =       0.16 minutes
	total time  =        132 seconds =       2.20 minutes
Total time:
	user time   =    3123.51 seconds =      52.06 minutes
	system time =      33.41 seconds =       0.56 minutes
	total time  =        435 seconds =       7.25 minutes

       N-Body: Complex Energy (fragments = (1, 2), basis = (1, 2): -1264.63409052044085)

   ==> N-Body: Counterpoise Corrected (CP) energies <==

   n-Body     Total Energy [Eh]       I.E. [kcal/mol]      Delta [kcal/mol]
        1    -1264.624788833845        0.000000000000        0.000000000000
        2    -1264.633365324277       -5.381828997846       -5.381828997846

   => Loading Basis Set <=

    Name: DEF2-SVP
    Role: ORBITAL
    Keyword: BASIS
    atoms 1             entry N          line   110 file /fsx/users/francis/anaconda3/envs/poltype-dev/share/psi4/basis/def2-svp.gbs 
    atoms 2-3, 6-12, 14 entry C          line    90 file /fsx/users/francis/anaconda3/envs/poltype-dev/share/psi4/basis/def2-svp.gbs 
    atoms 4-5           entry F          line   150 file /fsx/users/francis/anaconda3/envs/poltype-dev/share/psi4/basis/def2-svp.gbs 
    atoms 13            entry S          line   328 file /fsx/users/francis/anaconda3/envs/poltype-dev/share/psi4/basis/def2-svp.gbs 
    atoms 15-16, 24     entry O          line   130 file /fsx/users/francis/anaconda3/envs/poltype-dev/share/psi4/basis/def2-svp.gbs 
    atoms 17-23, 25-26  entry H          line    15 file /fsx/users/francis/anaconda3/envs/poltype-dev/share/psi4/basis/def2-svp.gbs 

CP Energy =  -0.008576
    Psi4 stopped on: Tuesday, 22 June 2021 05:03PM
    Psi4 wall time for execution: 0:07:15.49

*** Psi4 exiting successfully. Buy a developer a beer!
