
    -----------------------------------------------------------------------
          Psi4: An Open-Source Ab Initio Electronic Structure Package
                               Psi4 1.3.2 release

                         Git: Rev {HEAD} ecbda83 


    R. M. Parrish, L. A. Burns, D. G. A. Smith, A. C. Simmonett,
    A. E. DePrince III, E. G. Hohenstein, U. Bozkaya, A. Yu. Sokolov,
    R. Di Remigio, R. M. Richard, J. F. Gonthier, A. M. James,
    H. R. McAlexander, A. Kumar, M. Saitow, X. Wang, B. P. Pritchard,
    P. Verma, H. F. Schaefer III, K. Patkowski, R. A. King, E. F. Valeev,
    F. A. Evangelista, J. M. Turney, T. D. Crawford, and C. D. Sherrill,
    J. Chem. Theory Comput. 13(7) pp 3185--3197 (2017).
    (doi: 10.1021/acs.jctc.7b00174)


                         Additional Contributions by
    P. Kraus, H. Kruse, M. H. Lechner, M. C. Schieber, R. A. Shaw,
    A. Alenaizan, R. Galvelis, Z. L. Glick, S. Lehtola, and J. P. Misiewicz

    -----------------------------------------------------------------------


    Psi4 started on: Tuesday, 22 June 2021 04:33PM

    Process ID: 25139
    Host:       cpu-spot-dy-c5n2xlarge-1
    PSIDATADIR: /fsx/users/francis/anaconda3/envs/poltype-dev/share/psi4
    Memory:     500.0 MiB
    Threads:    1
    
  ==> Input File <==

--------------------------------------------------------------------------
molecule { 
0 1
  N                 -0.9434020    -1.2946320    -0.0708730
  C                 -2.2086410    -1.0439180     0.3936770
  C                 -2.5064230     0.4442600     0.7696760
  F                 -3.7903720     0.7497380     0.3523190
  F                 -2.4836960     0.5330490     2.1429320
  C                 -1.5166830     1.5216170     0.2013870
  C                 -0.1964200     1.0409120    -0.2702800
  C                  0.7882390     1.9604880    -0.6925130
  C                  2.0449640     1.5210510    -1.1271190
  C                  2.3379690     0.1335820    -1.1724330
  C                  1.3372550    -0.7903110    -0.8016000
  C                  0.0734500    -0.3537710    -0.3679190
  S                  3.8924890    -0.5349890    -1.6856220
  C                  4.9258200    -0.3817870    -0.2070430
  O                 -3.0103620    -1.9559730     0.5455690
  O                 -1.8061590     2.7159920     0.2283820
  H                  2.7864760     2.2648640    -1.4172820
  H                  0.5494890     3.0238560    -0.6588960
  H                 -0.7909570    -2.2752920    -0.2609620
  H                  1.5516850    -1.8593380    -0.8390890
  H                  5.1500330     0.6747250    -0.0313260
  H                  4.3926260    -0.7947290     0.6550380
  H                  5.8560830    -0.9356900    -0.3635650
--
0 1
  O                 -2.7468764     0.5056800    -1.8336856
  H                 -3.6710304     0.5256940    -1.5741946
  H                 -2.5818354     1.2630060    -2.3973336
}
memory 16GB
set_num_threads(8)
psi4_io.set_default_path("/scratch/Psi4-ligand")
set maxiter 500
set freeze_core True
set PROPERTIES_ORIGIN ["COM"]
e_dim= energy('wb97x-d/aug-cc-pVDZ',bsse_type='cp')

psi4.print_out('CP Energy = %10.6f' % (e_dim))
clean()
--------------------------------------------------------------------------

  Memory set to  14.901 GiB by Python driver.
  Threads set to 8 by Python driver.


   ===> N-Body Interaction Abacus <===
        BSSE Treatment:                     cp
        Number of 1-body computations:     4
        Number of 2-body computations:     1

   ==> N-Body: Now computing 1-body complexes <==


       N-Body: Computing complex (1/4) with fragments (2,) in the basis of fragments (2,).


*** tstart() called on cpu-spot-dy-c5n2xlarge-1
*** at Tue Jun 22 16:33:58 2021

   => Loading Basis Set <=

    Name: AUG-CC-PVDZ
    Role: ORBITAL
    Keyword: BASIS
    atoms 1   entry O          line   250 file /fsx/users/francis/anaconda3/envs/poltype-dev/share/psi4/basis/aug-cc-pvdz.gbs 
    atoms 2-3 entry H          line    36 file /fsx/users/francis/anaconda3/envs/poltype-dev/share/psi4/basis/aug-cc-pvdz.gbs 


         ---------------------------------------------------------
                                   SCF
               by Justin Turney, Rob Parrish, Andy Simmonett
                          and Daniel G. A. Smith
                              RKS Reference
                        8 Threads,  15258 MiB Core
         ---------------------------------------------------------

  ==> Geometry <==

    Molecular point group: c1
    Full point group: C1

    Geometry (in Angstrom), charge = 0, multiplicity = 1:

       Center              X                  Y                   Z               Mass       
    ------------   -----------------  -----------------  -----------------  -----------------
         O           -2.537579340054     0.276165701317    -1.562980563020    15.994914619570
         H           -3.461733340054     0.296179701317    -1.303489563020     1.007825032230
         H           -2.372538340054     1.033491701317    -2.126628563020     1.007825032230

  Running in c1 symmetry.

  Rotational constants: A =     12.53757  B =      0.10075  C =      0.10017 [cm^-1]
  Rotational constants: A = 375866.79356  B =   3020.45568  C =   3003.05818 [MHz]
  Nuclear repulsion =    9.167680042183255

  Charge       = 0
  Multiplicity = 1
  Electrons    = 10
  Nalpha       = 5
  Nbeta        = 5

  ==> Algorithm <==

  SCF Algorithm Type is DF.
  DIIS enabled.
  MOM disabled.
  Fractional occupation disabled.
  Guess Type is SAD.
  Energy threshold   = 1.00e-06
  Density threshold  = 1.00e-06
  Integral threshold = 0.00e+00

  ==> Primary Basis <==

  Basis Set: AUG-CC-PVDZ
    Blend: AUG-CC-PVDZ
    Number of shells: 19
    Number of basis function: 41
    Number of Cartesian functions: 43
    Spherical Harmonics?: true
    Max angular momentum: 2

  ==> DFT Potential <==

   => Composite Functional: WB97X-D <= 

    wB97X-D Hyb-GGA Exchange-Correlation Functional

    J.-D. Chai and M. Head-Gordon, Phys. Chem. Chem. Phys. 10, 6615 (2008)

    Deriv               =              1
    GGA                 =           TRUE
    Meta                =          FALSE

    Exchange Hybrid     =           TRUE
    MP2 Hybrid          =          FALSE

   => Exchange-Correlation Functionals <=

    1.0000   wB97D range-separated functional

   => Exact (HF) Exchange <=

    0.7780            HF,LR [omega = 0.2000]
    0.2220               HF 

   => Molecular Quadrature <=

    Radial Scheme          =       TREUTLER
    Pruning Scheme         =           FLAT
    Nuclear Scheme         =       TREUTLER

    BS radius alpha        =              1
    Pruning alpha          =              1
    Radial Points          =             75
    Spherical Points       =            302
    Total Points           =          67950
    Total Blocks           =            564
    Max Points             =            256
    Max Functions          =             41

   => WB97X-D: Empirical Dispersion <=

    Chai and Head-Gordon Dispersion Correction
    Chai, J.-D.; Head-Gordon, M. (2010), J. Chem. Phys., 132: 6615-6620

        s6 =       1.000000

   => Loading Basis Set <=

    Name: (AUG-CC-PVDZ AUX)
    Role: JKFIT
    Keyword: DF_BASIS_SCF
    atoms 1   entry O          line   270 file /fsx/users/francis/anaconda3/envs/poltype-dev/share/psi4/basis/aug-cc-pvdz-jkfit.gbs 
    atoms 2-3 entry H          line    70 file /fsx/users/francis/anaconda3/envs/poltype-dev/share/psi4/basis/aug-cc-pvdz-jkfit.gbs 

  ==> Pre-Iterations <==

   -------------------------------------------------------
    Irrep   Nso     Nmo     Nalpha   Nbeta   Ndocc  Nsocc
   -------------------------------------------------------
     A         41      41       0       0       0       0
   -------------------------------------------------------
    Total      41      41       5       5       5       0
   -------------------------------------------------------

  ==> Integral Setup <==

  ==> DiskDFJK: Density-Fitted J/K Matrices <==

    J tasked:                  Yes
    K tasked:                  Yes
    wK tasked:                 Yes
    Omega:               2.000E-01
    OpenMP threads:              8
    Integrals threads:           8
    Memory [MiB]:            11363
    Algorithm:                Core
    Integral Cache:           NONE
    Schwarz Cutoff:          1E-12
    Fitting Condition:       1E-10

   => Auxiliary Basis Set <=

  Basis Set: (AUG-CC-PVDZ AUX)
    Blend: AUG-CC-PVDZ-JKFIT
    Number of shells: 52
    Number of basis function: 150
    Number of Cartesian functions: 171
    Spherical Harmonics?: true
    Max angular momentum: 3

  Cached 100.0% of DFT collocation blocks in 0.079 [GiB].

  Minimum eigenvalue in the overlap matrix is 2.8193515776E-03.
  Using Symmetric Orthogonalization.

  SCF Guess: Superposition of Atomic Densities via on-the-fly atomic UHF.

  ==> Iterations <==

                           Total Energy        Delta E     RMS |[F,P]|

   @DF-RKS iter SAD:   -75.95321700274579   -7.59532e+01   0.00000e+00 
   @DF-RKS iter   1:   -76.27476441405351   -3.21547e-01   1.51054e-02 DIIS
   @DF-RKS iter   2:   -76.22813353920041    4.66309e-02   1.77952e-02 DIIS
   @DF-RKS iter   3:   -76.41935955636009   -1.91226e-01   3.63709e-04 DIIS
   @DF-RKS iter   4:   -76.41950459434884   -1.45038e-04   9.79776e-05 DIIS
   @DF-RKS iter   5:   -76.41951244474323   -7.85039e-06   1.86390e-05 DIIS
   @DF-RKS iter   6:   -76.41951277001861   -3.25275e-07   2.02234e-06 DIIS
   @DF-RKS iter   7:   -76.41951278064572   -1.06271e-08   2.55049e-07 DIIS
  Energy and wave function converged.


  ==> Post-Iterations <==

    Orbital Energies [Eh]
    ---------------------

    Doubly Occupied:                                                      

       1A    -19.278283     2A     -1.119637     3A     -0.632119  
       4A     -0.478515     5A     -0.406743  

    Virtual:                                                              

       6A      0.034026     7A      0.060946     8A      0.162146  
       9A      0.190777    10A      0.199490    11A      0.217702  
      12A      0.255703    13A      0.301685    14A      0.361988  
      15A      0.378259    16A      0.408160    17A      0.518155  
      18A      0.580144    19A      0.603718    20A      0.717066  
      21A      0.809684    22A      0.980420    23A      0.991959  
      24A      1.034589    25A      1.174839    26A      1.289264  
      27A      1.315532    28A      1.397340    29A      1.817921  
      30A      1.850668    31A      1.920386    32A      2.227868  
      33A      2.233138    34A      2.376514    35A      2.497969  
      36A      2.710936    37A      3.372575    38A      3.384521  
      39A      3.402574    40A      3.737779    41A      3.969136  

    Final Occupation by Irrep:
              A 
    DOCC [     5 ]

  @DF-RKS Final Energy:   -76.41951278064572

   => Energetics <=

    Nuclear Repulsion Energy =              9.1676800421832549
    One-Electron Energy =                -122.9496038697910905
    Two-Electron Energy =                  43.8352063087030928
    DFT Exchange-Correlation Energy =      -6.4727644462526808
    Empirical Dispersion Energy =          -0.0000308154882910
    VV10 Nonlocal Energy =                  0.0000000000000000
    Total Energy =                        -76.4195127806457180

Computation Completed


Properties will be evaluated at  -4.875602,   0.604077,  -2.985768 [a0]

Properties computed using the SCF density matrix

  Nuclear Dipole Moment: [e a0]
     X:    -0.6318      Y:     0.6470      Z:    -0.2531

  Electronic Dipole Moment: [e a0]
     X:     0.1461      Y:    -0.1492      Z:     0.0583

  Dipole Moment: [e a0]
     X:    -0.4857      Y:     0.4977      Z:    -0.1949     Total:     0.7223

  Dipole Moment: [D]
     X:    -1.2346      Y:     1.2651      Z:    -0.4953     Total:     1.8358


*** tstop() called on cpu-spot-dy-c5n2xlarge-1 at Tue Jun 22 16:33:59 2021
Module time:
	user time   =       8.28 seconds =       0.14 minutes
	system time =       0.22 seconds =       0.00 minutes
	total time  =          1 seconds =       0.02 minutes
Total time:
	user time   =       8.28 seconds =       0.14 minutes
	system time =       0.22 seconds =       0.00 minutes
	total time  =          1 seconds =       0.02 minutes

       N-Body: Complex Energy (fragments = (2,), basis = (2,):   -76.41951278064572)

       N-Body: Computing complex (2/4) with fragments (2,) in the basis of fragments (1, 2).


*** tstart() called on cpu-spot-dy-c5n2xlarge-1
*** at Tue Jun 22 16:33:59 2021

   => Loading Basis Set <=

    Name: AUG-CC-PVDZ
    Role: ORBITAL
    Keyword: BASIS
    atoms 1             entry N          line   214 file /fsx/users/francis/anaconda3/envs/poltype-dev/share/psi4/basis/aug-cc-pvdz.gbs 
    atoms 2-3, 6-12, 14 entry C          line   178 file /fsx/users/francis/anaconda3/envs/poltype-dev/share/psi4/basis/aug-cc-pvdz.gbs 
    atoms 4-5           entry F          line   286 file /fsx/users/francis/anaconda3/envs/poltype-dev/share/psi4/basis/aug-cc-pvdz.gbs 
    atoms 13            entry S          line   698 file /fsx/users/francis/anaconda3/envs/poltype-dev/share/psi4/basis/aug-cc-pvdz.gbs 
    atoms 15-16, 24     entry O          line   250 file /fsx/users/francis/anaconda3/envs/poltype-dev/share/psi4/basis/aug-cc-pvdz.gbs 
    atoms 17-23, 25-26  entry H          line    36 file /fsx/users/francis/anaconda3/envs/poltype-dev/share/psi4/basis/aug-cc-pvdz.gbs 


         ---------------------------------------------------------
                                   SCF
               by Justin Turney, Rob Parrish, Andy Simmonett
                          and Daniel G. A. Smith
                              RKS Reference
                        8 Threads,  15258 MiB Core
         ---------------------------------------------------------

  ==> Geometry <==

    Molecular point group: c1
    Full point group: C1

    Geometry (in Angstrom), charge = 0, multiplicity = 1:

       Center              X                  Y                   Z               Mass       
    ------------   -----------------  -----------------  -----------------  -----------------
      Gh(N)          -0.734104940054    -1.524146298683     0.199832036980    14.003074004430
      Gh(C)          -1.999343940054    -1.273432298683     0.664382036980    12.000000000000
      Gh(C)          -2.297125940054     0.214745701317     1.040381036980    12.000000000000
      Gh(F)          -3.581074940054     0.520223701317     0.623024036980    18.998403162730
      Gh(F)          -2.274398940054     0.303534701317     2.413637036980    18.998403162730
      Gh(C)          -1.307385940054     1.292102701317     0.472092036980    12.000000000000
      Gh(C)           0.012877059946     0.811397701317     0.000425036980    12.000000000000
      Gh(C)           0.997536059946     1.730973701317    -0.421807963020    12.000000000000
      Gh(C)           2.254261059946     1.291536701317    -0.856413963020    12.000000000000
      Gh(C)           2.547266059946    -0.095932298683    -0.901727963020    12.000000000000
      Gh(C)           1.546552059946    -1.019825298683    -0.530894963020    12.000000000000
      Gh(C)           0.282747059946    -0.583285298683    -0.097213963020    12.000000000000
      Gh(S)           4.101786059946    -0.764503298683    -1.414916963020    31.972071174400
      Gh(C)           5.135117059946    -0.611301298683     0.063662036980    12.000000000000
      Gh(O)          -2.801064940054    -2.185487298683     0.816274036980    15.994914619570
      Gh(O)          -1.596861940054     2.486477701317     0.499087036980    15.994914619570
      Gh(H)           2.995773059946     2.035349701317    -1.146576963020     1.007825032230
      Gh(H)           0.758786059946     2.794341701317    -0.388190963020     1.007825032230
      Gh(H)          -0.581659940054    -2.504806298683     0.009743036980     1.007825032230
      Gh(H)           1.760982059946    -2.088852298683    -0.568383963020     1.007825032230
      Gh(H)           5.359330059946     0.445210701317     0.239379036980     1.007825032230
      Gh(H)           4.601923059946    -1.024243298683     0.925743036980     1.007825032230
      Gh(H)           6.065380059946    -1.165204298683    -0.092859963020     1.007825032230
         O           -2.537579340054     0.276165701317    -1.562980563020    15.994914619570
         H           -3.461733340054     0.296179701317    -1.303489563020     1.007825032230
         H           -2.372538340054     1.033491701317    -2.126628563020     1.007825032230

  Running in c1 symmetry.

  Rotational constants: A =      0.02992  B =      0.00766  C =      0.00704 [cm^-1]
  Rotational constants: A =    897.05560  B =    229.54551  C =    210.95800 [MHz]
  Nuclear repulsion =    9.167680042183255

  Charge       = 0
  Multiplicity = 1
  Electrons    = 10
  Nalpha       = 5
  Nbeta        = 5

  ==> Algorithm <==

  SCF Algorithm Type is DF.
  DIIS enabled.
  MOM disabled.
  Fractional occupation disabled.
  Guess Type is SAD.
  Energy threshold   = 1.00e-06
  Density threshold  = 1.00e-06
  Integral threshold = 0.00e+00

  ==> Primary Basis <==

  Basis Set: AUG-CC-PVDZ
    Blend: AUG-CC-PVDZ
    Number of shells: 200
    Number of basis function: 476
    Number of Cartesian functions: 510
    Spherical Harmonics?: true
    Max angular momentum: 2

  ==> DFT Potential <==

   => Composite Functional: WB97X-D <= 

    wB97X-D Hyb-GGA Exchange-Correlation Functional

    J.-D. Chai and M. Head-Gordon, Phys. Chem. Chem. Phys. 10, 6615 (2008)

    Deriv               =              1
    GGA                 =           TRUE
    Meta                =          FALSE

    Exchange Hybrid     =           TRUE
    MP2 Hybrid          =          FALSE

   => Exchange-Correlation Functionals <=

    1.0000   wB97D range-separated functional

   => Exact (HF) Exchange <=

    0.7780            HF,LR [omega = 0.2000]
    0.2220               HF 

   => Molecular Quadrature <=

    Radial Scheme          =       TREUTLER
    Pruning Scheme         =           FLAT
    Nuclear Scheme         =       TREUTLER

    BS radius alpha        =              1
    Pruning alpha          =              1
    Radial Points          =             75
    Spherical Points       =            302
    Total Points           =         588900
    Total Blocks           =           4379
    Max Points             =            256
    Max Functions          =            436

   => WB97X-D: Empirical Dispersion <=

    Chai and Head-Gordon Dispersion Correction
    Chai, J.-D.; Head-Gordon, M. (2010), J. Chem. Phys., 132: 6615-6620

        s6 =       1.000000

   => Loading Basis Set <=

    Name: (AUG-CC-PVDZ AUX)
    Role: JKFIT
    Keyword: DF_BASIS_SCF
    atoms 1             entry N          line   212 file /fsx/users/francis/anaconda3/envs/poltype-dev/share/psi4/basis/aug-cc-pvdz-jkfit.gbs 
    atoms 2-3, 6-12, 14 entry C          line   154 file /fsx/users/francis/anaconda3/envs/poltype-dev/share/psi4/basis/aug-cc-pvdz-jkfit.gbs 
    atoms 4-5           entry F          line   328 file /fsx/users/francis/anaconda3/envs/poltype-dev/share/psi4/basis/aug-cc-pvdz-jkfit.gbs 
    atoms 13            entry S          line   690 file /fsx/users/francis/anaconda3/envs/poltype-dev/share/psi4/basis/aug-cc-pvdz-jkfit.gbs 
    atoms 15-16, 24     entry O          line   270 file /fsx/users/francis/anaconda3/envs/poltype-dev/share/psi4/basis/aug-cc-pvdz-jkfit.gbs 
    atoms 17-23, 25-26  entry H          line    70 file /fsx/users/francis/anaconda3/envs/poltype-dev/share/psi4/basis/aug-cc-pvdz-jkfit.gbs 

  ==> Pre-Iterations <==

   -------------------------------------------------------
    Irrep   Nso     Nmo     Nalpha   Nbeta   Ndocc  Nsocc
   -------------------------------------------------------
     A        476     476       0       0       0       0
   -------------------------------------------------------
    Total     476     476       5       5       5       0
   -------------------------------------------------------

  ==> Integral Setup <==

  ==> DiskDFJK: Density-Fitted J/K Matrices <==

    J tasked:                  Yes
    K tasked:                  Yes
    wK tasked:                 Yes
    Omega:               2.000E-01
    OpenMP threads:              8
    Integrals threads:           8
    Memory [MiB]:             5810
    Algorithm:                Core
    Integral Cache:           NONE
    Schwarz Cutoff:          1E-12
    Fitting Condition:       1E-10

   => Auxiliary Basis Set <=

  Basis Set: (AUG-CC-PVDZ AUX)
    Blend: AUG-CC-PVDZ-JKFIT
    Number of shells: 596
    Number of basis function: 1792
    Number of Cartesian functions: 2081
    Spherical Harmonics?: true
    Max angular momentum: 3

  Cached 100.0% of DFT collocation blocks in 5.501 [GiB].

  Minimum eigenvalue in the overlap matrix is 1.3786891703E-06.
  Using Symmetric Orthogonalization.

  SCF Guess: Superposition of Atomic Densities via on-the-fly atomic UHF.

  ==> Iterations <==

                           Total Energy        Delta E     RMS |[F,P]|

   @DF-RKS iter SAD:   -75.95322722278557   -7.59532e+01   0.00000e+00 
   @DF-RKS iter   1:   -76.27562129214762   -3.22394e-01   1.30661e-03 DIIS
   @DF-RKS iter   2:   -76.22883389202910    4.67874e-02   1.53863e-03 DIIS
   @DF-RKS iter   3:   -76.42018257712003   -1.91349e-01   3.22735e-05 DIIS
   @DF-RKS iter   4:   -76.42033910490838   -1.56528e-04   9.02862e-06 DIIS
   @DF-RKS iter   5:   -76.42034799977540   -8.89487e-06   1.65336e-06 DIIS
   @DF-RKS iter   6:   -76.42034835248381   -3.52708e-07   1.89092e-07 DIIS
  Energy and wave function converged.


  ==> Post-Iterations <==

    Orbital Energies [Eh]
    ---------------------

    Doubly Occupied:                                                      

       1A    -19.278228     2A     -1.119372     3A     -0.631811  
       4A     -0.478146     5A     -0.406332  

    Virtual:                                                              

       6A      0.021228     7A      0.030524     8A      0.038381  
       9A      0.047394    10A      0.049563    11A      0.055255  
      12A      0.060767    13A      0.069258    14A      0.075552  
      15A      0.077668    16A      0.082102    17A      0.090170  
      18A      0.095179    19A      0.097081    20A      0.102719  
      21A      0.107601    22A      0.111432    23A      0.117908  
      24A      0.119004    25A      0.127421    26A      0.133559  
      27A      0.136421    28A      0.143835    29A      0.145239  
      30A      0.147205    31A      0.152314    32A      0.156398  
      33A      0.163797    34A      0.167357    35A      0.171528  
      36A      0.173533    37A      0.177883    38A      0.180087  
      39A      0.185149    40A      0.189940    41A      0.192495  
      42A      0.197403    43A      0.202765    44A      0.208809  
      45A      0.215416    46A      0.216962    47A      0.219395  
      48A      0.225864    49A      0.231852    50A      0.232498  
      51A      0.238779    52A      0.241644    53A      0.247057  
      54A      0.249524    55A      0.257172    56A      0.262982  
      57A      0.265998    58A      0.270638    59A      0.276686  
      60A      0.283322    61A      0.284519    62A      0.287422  
      63A      0.295564    64A      0.302167    65A      0.306799  
      66A      0.311471    67A      0.320949    68A      0.327694  
      69A      0.330257    70A      0.336658    71A      0.342250  
      72A      0.347941    73A      0.351544    74A      0.354253  
      75A      0.363581    76A      0.365465    77A      0.374136  
      78A      0.380405    79A      0.387490    80A      0.389694  
      81A      0.391038    82A      0.397271    83A      0.400203  
      84A      0.408543    85A      0.413677    86A      0.417645  
      87A      0.428831    88A      0.431009    89A      0.437547  
      90A      0.440685    91A      0.443263    92A      0.452267  
      93A      0.457283    94A      0.462295    95A      0.465691  
      96A      0.469731    97A      0.472979    98A      0.477571  
      99A      0.487343   100A      0.499641   101A      0.503762  
     102A      0.507554   103A      0.513077   104A      0.514266  
     105A      0.516452   106A      0.528888   107A      0.533846  
     108A      0.537238   109A      0.543631   110A      0.551107  
     111A      0.554588   112A      0.560597   113A      0.564206  
     114A      0.572863   115A      0.577987   116A      0.580301  
     117A      0.583222   118A      0.585658   119A      0.599095  
     120A      0.607972   121A      0.609181   122A      0.614283  
     123A      0.620598   124A      0.626094   125A      0.633985  
     126A      0.638620   127A      0.640375   128A      0.652739  
     129A      0.660259   130A      0.667850   131A      0.672399  
     132A      0.673495   133A      0.677287   134A      0.687847  
     135A      0.694805   136A      0.696932   137A      0.708356  
     138A      0.711452   139A      0.721352   140A      0.727543  
     141A      0.734773   142A      0.736926   143A      0.738752  
     144A      0.754445   145A      0.757200   146A      0.768202  
     147A      0.770047   148A      0.779237   149A      0.791051  
     150A      0.796249   151A      0.802988   152A      0.809733  
     153A      0.813879   154A      0.817052   155A      0.831260  
     156A      0.837758   157A      0.841629   158A      0.846860  
     159A      0.849031   160A      0.862049   161A      0.863388  
     162A      0.864714   163A      0.879452   164A      0.883029  
     165A      0.889256   166A      0.893627   167A      0.904290  
     168A      0.904908   169A      0.909260   170A      0.927318  
     171A      0.933220   172A      0.947800   173A      0.949747  
     174A      0.960557   175A      0.965705   176A      0.969899  
     177A      0.975339   178A      0.979470   179A      0.988920  
     180A      0.991848   181A      0.996831   182A      1.000787  
     183A      1.015702   184A      1.018639   185A      1.025442  
     186A      1.029669   187A      1.045524   188A      1.049515  
     189A      1.059812   190A      1.064802   191A      1.084756  
     192A      1.086902   193A      1.090435   194A      1.102740  
     195A      1.115784   196A      1.134953   197A      1.148107  
     198A      1.155164   199A      1.167022   200A      1.176162  
     201A      1.184874   202A      1.188458   203A      1.200586  
     204A      1.202813   205A      1.212015   206A      1.213680  
     207A      1.232162   208A      1.237160   209A      1.241670  
     210A      1.252624   211A      1.278526   212A      1.283557  
     213A      1.292707   214A      1.296159   215A      1.315834  
     216A      1.333128   217A      1.337254   218A      1.338671  
     219A      1.351257   220A      1.367882   221A      1.371904  
     222A      1.388662   223A      1.396906   224A      1.414326  
     225A      1.421218   226A      1.437856   227A      1.448378  
     228A      1.455739   229A      1.457269   230A      1.480080  
     231A      1.485666   232A      1.494761   233A      1.505291  
     234A      1.514853   235A      1.528472   236A      1.545396  
     237A      1.546114   238A      1.568604   239A      1.581467  
     240A      1.583181   241A      1.601147   242A      1.626559  
     243A      1.644055   244A      1.648693   245A      1.663585  
     246A      1.670654   247A      1.702870   248A      1.707633  
     249A      1.717356   250A      1.744108   251A      1.753703  
     252A      1.764815   253A      1.791113   254A      1.797191  
     255A      1.817570   256A      1.832871   257A      1.837085  
     258A      1.866608   259A      1.891398   260A      1.897835  
     261A      1.906896   262A      1.921357   263A      1.940832  
     264A      1.961182   265A      1.977618   266A      1.985000  
     267A      2.001784   268A      2.039879   269A      2.045524  
     270A      2.054090   271A      2.081730   272A      2.084933  
     273A      2.092433   274A      2.094213   275A      2.110414  
     276A      2.122102   277A      2.139122   278A      2.158698  
     279A      2.172771   280A      2.183597   281A      2.197285  
     282A      2.211741   283A      2.217097   284A      2.226575  
     285A      2.240895   286A      2.248389   287A      2.265693  
     288A      2.272304   289A      2.284528   290A      2.288877  
     291A      2.294314   292A      2.301375   293A      2.309888  
     294A      2.315026   295A      2.320460   296A      2.332550  
     297A      2.347477   298A      2.351563   299A      2.356011  
     300A      2.367540   301A      2.371157   302A      2.384350  
     303A      2.386160   304A      2.392852   305A      2.418435  
     306A      2.425052   307A      2.433868   308A      2.445927  
     309A      2.466513   310A      2.474560   311A      2.489848  
     312A      2.521719   313A      2.532917   314A      2.558719  
     315A      2.563987   316A      2.581200   317A      2.602805  
     318A      2.609149   319A      2.622346   320A      2.631502  
     321A      2.641650   322A      2.648393   323A      2.655961  
     324A      2.681829   325A      2.688068   326A      2.724475  
     327A      2.737294   328A      2.756862   329A      2.769849  
     330A      2.778340   331A      2.801167   332A      2.820175  
     333A      2.826381   334A      2.839072   335A      2.848120  
     336A      2.852318   337A      2.872334   338A      2.891532  
     339A      2.899038   340A      2.920827   341A      2.927495  
     342A      2.940261   343A      2.966568   344A      2.988783  
     345A      3.004885   346A      3.016218   347A      3.033789  
     348A      3.047560   349A      3.067379   350A      3.072505  
     351A      3.090250   352A      3.116613   353A      3.146085  
     354A      3.163831   355A      3.198684   356A      3.202860  
     357A      3.259271   358A      3.274952   359A      3.277549  
     360A      3.287831   361A      3.297677   362A      3.323592  
     363A      3.336379   364A      3.372853   365A      3.379673  
     366A      3.446734   367A      3.468726   368A      3.479964  
     369A      3.503759   370A      3.520186   371A      3.560843  
     372A      3.570247   373A      3.577993   374A      3.604370  
     375A      3.669855   376A      3.679329   377A      3.690300  
     378A      3.724975   379A      3.735655   380A      3.773896  
     381A      3.801836   382A      3.830639   383A      3.885515  
     384A      3.915699   385A      3.923620   386A      3.941937  
     387A      3.997152   388A      4.036203   389A      4.057753  
     390A      4.101771   391A      4.136746   392A      4.159025  
     393A      4.257123   394A      4.296462   395A      4.339434  
     396A      4.377312   397A      4.396898   398A      4.430440  
     399A      4.487813   400A      4.553433   401A      4.571529  
     402A      4.620784   403A      4.677084   404A      4.719865  
     405A      4.754673   406A      4.829193   407A      4.858809  
     408A      4.930910   409A      4.975754   410A      5.035277  
     411A      5.057379   412A      5.069681   413A      5.073318  
     414A      5.075825   415A      5.082385   416A      5.105035  
     417A      5.108115   418A      5.121876   419A      5.151772  
     420A      5.228289   421A      5.304342   422A      5.314874  
     423A      5.345561   424A      5.391466   425A      5.440835  
     426A      5.478257   427A      5.540043   428A      5.570362  
     429A      5.642895   430A      5.872885   431A      6.008845  
     432A      6.062289   433A      6.108625   434A      6.177570  
     435A      6.191661   436A      6.273325   437A      6.480150  
     438A      6.540731   439A      6.818743   440A      6.838458  
     441A      6.868647   442A      6.876784   443A      6.877766  
     444A      6.920659   445A      6.951062   446A      6.979844  
     447A      6.986997   448A      7.006727   449A      7.031117  
     450A      7.111938   451A      7.151894   452A      7.816854  
     453A      7.952069   454A      8.025755   455A      8.117975  
     456A      8.161316   457A      8.276612   458A     18.014412  
     459A     18.423780   460A     18.572410   461A     18.643173  
     462A     18.821985   463A     18.916735   464A     19.176439  
     465A     19.403265   466A     19.696470   467A     20.660112  
     468A     20.755266   469A     20.894252   470A     21.437711  
     471A     25.503955   472A     33.557131   473A     33.565320  
     474A     43.014357   475A     43.032338   476A    138.006194  

    Final Occupation by Irrep:
              A 
    DOCC [     5 ]

  @DF-RKS Final Energy:   -76.42034835248381

   => Energetics <=

    Nuclear Repulsion Energy =              9.1676800421832549
    One-Electron Energy =                -122.9536159866546541
    Two-Electron Energy =                  43.8389279725722361
    DFT Exchange-Correlation Energy =      -6.4733095650963532
    Empirical Dispersion Energy =          -0.0000308154882910
    VV10 Nonlocal Energy =                  0.0000000000000000
    Total Energy =                        -76.4203483524838134

Computation Completed


Properties will be evaluated at   0.000000,   0.000000,   0.000000 [a0]

Properties computed using the SCF density matrix

  Nuclear Dipole Moment: [e a0]
     X:   -49.3878      Y:     6.6877      Z:   -30.1108

  Electronic Dipole Moment: [e a0]
     X:    48.9047      Y:    -6.1926      Z:    29.9182

  Dipole Moment: [e a0]
     X:    -0.4831      Y:     0.4951      Z:    -0.1926     Total:     0.7181

  Dipole Moment: [D]
     X:    -1.2280      Y:     1.2585      Z:    -0.4896     Total:     1.8252


*** tstop() called on cpu-spot-dy-c5n2xlarge-1 at Tue Jun 22 16:35:21 2021
Module time:
	user time   =     591.10 seconds =       9.85 minutes
	system time =       7.01 seconds =       0.12 minutes
	total time  =         82 seconds =       1.37 minutes
Total time:
	user time   =     599.45 seconds =       9.99 minutes
	system time =       7.23 seconds =       0.12 minutes
	total time  =         83 seconds =       1.38 minutes

       N-Body: Complex Energy (fragments = (2,), basis = (1, 2):   -76.42034835248381)

       N-Body: Computing complex (3/4) with fragments (1,) in the basis of fragments (1, 2).


*** tstart() called on cpu-spot-dy-c5n2xlarge-1
*** at Tue Jun 22 16:35:21 2021

   => Loading Basis Set <=

    Name: AUG-CC-PVDZ
    Role: ORBITAL
    Keyword: BASIS
    atoms 1             entry N          line   214 file /fsx/users/francis/anaconda3/envs/poltype-dev/share/psi4/basis/aug-cc-pvdz.gbs 
    atoms 2-3, 6-12, 14 entry C          line   178 file /fsx/users/francis/anaconda3/envs/poltype-dev/share/psi4/basis/aug-cc-pvdz.gbs 
    atoms 4-5           entry F          line   286 file /fsx/users/francis/anaconda3/envs/poltype-dev/share/psi4/basis/aug-cc-pvdz.gbs 
    atoms 13            entry S          line   698 file /fsx/users/francis/anaconda3/envs/poltype-dev/share/psi4/basis/aug-cc-pvdz.gbs 
    atoms 15-16, 24     entry O          line   250 file /fsx/users/francis/anaconda3/envs/poltype-dev/share/psi4/basis/aug-cc-pvdz.gbs 
    atoms 17-23, 25-26  entry H          line    36 file /fsx/users/francis/anaconda3/envs/poltype-dev/share/psi4/basis/aug-cc-pvdz.gbs 


         ---------------------------------------------------------
                                   SCF
               by Justin Turney, Rob Parrish, Andy Simmonett
                          and Daniel G. A. Smith
                              RKS Reference
                        8 Threads,  15258 MiB Core
         ---------------------------------------------------------

  ==> Geometry <==

    Molecular point group: c1
    Full point group: C1

    Geometry (in Angstrom), charge = 0, multiplicity = 1:

       Center              X                  Y                   Z               Mass       
    ------------   -----------------  -----------------  -----------------  -----------------
         N           -0.734104940054    -1.524146298683     0.199832036980    14.003074004430
         C           -1.999343940054    -1.273432298683     0.664382036980    12.000000000000
         C           -2.297125940054     0.214745701317     1.040381036980    12.000000000000
         F           -3.581074940054     0.520223701317     0.623024036980    18.998403162730
         F           -2.274398940054     0.303534701317     2.413637036980    18.998403162730
         C           -1.307385940054     1.292102701317     0.472092036980    12.000000000000
         C            0.012877059946     0.811397701317     0.000425036980    12.000000000000
         C            0.997536059946     1.730973701317    -0.421807963020    12.000000000000
         C            2.254261059946     1.291536701317    -0.856413963020    12.000000000000
         C            2.547266059946    -0.095932298683    -0.901727963020    12.000000000000
         C            1.546552059946    -1.019825298683    -0.530894963020    12.000000000000
         C            0.282747059946    -0.583285298683    -0.097213963020    12.000000000000
         S            4.101786059946    -0.764503298683    -1.414916963020    31.972071174400
         C            5.135117059946    -0.611301298683     0.063662036980    12.000000000000
         O           -2.801064940054    -2.185487298683     0.816274036980    15.994914619570
         O           -1.596861940054     2.486477701317     0.499087036980    15.994914619570
         H            2.995773059946     2.035349701317    -1.146576963020     1.007825032230
         H            0.758786059946     2.794341701317    -0.388190963020     1.007825032230
         H           -0.581659940054    -2.504806298683     0.009743036980     1.007825032230
         H            1.760982059946    -2.088852298683    -0.568383963020     1.007825032230
         H            5.359330059946     0.445210701317     0.239379036980     1.007825032230
         H            4.601923059946    -1.024243298683     0.925743036980     1.007825032230
         H            6.065380059946    -1.165204298683    -0.092859963020     1.007825032230
      Gh(O)          -2.537579340054     0.276165701317    -1.562980563020    15.994914619570
      Gh(H)          -3.461733340054     0.296179701317    -1.303489563020     1.007825032230
      Gh(H)          -2.372538340054     1.033491701317    -2.126628563020     1.007825032230

  Running in c1 symmetry.

  Rotational constants: A =      0.02992  B =      0.00766  C =      0.00704 [cm^-1]
  Rotational constants: A =    897.05560  B =    229.54551  C =    210.95800 [MHz]
  Nuclear repulsion = 1178.105340247073173

  Charge       = 0
  Multiplicity = 1
  Electrons    = 124
  Nalpha       = 62
  Nbeta        = 62

  ==> Algorithm <==

  SCF Algorithm Type is DF.
  DIIS enabled.
  MOM disabled.
  Fractional occupation disabled.
  Guess Type is SAD.
  Energy threshold   = 1.00e-06
  Density threshold  = 1.00e-06
  Integral threshold = 0.00e+00

  ==> Primary Basis <==

  Basis Set: AUG-CC-PVDZ
    Blend: AUG-CC-PVDZ
    Number of shells: 200
    Number of basis function: 476
    Number of Cartesian functions: 510
    Spherical Harmonics?: true
    Max angular momentum: 2

  ==> DFT Potential <==

   => Composite Functional: WB97X-D <= 

    wB97X-D Hyb-GGA Exchange-Correlation Functional

    J.-D. Chai and M. Head-Gordon, Phys. Chem. Chem. Phys. 10, 6615 (2008)

    Deriv               =              1
    GGA                 =           TRUE
    Meta                =          FALSE

    Exchange Hybrid     =           TRUE
    MP2 Hybrid          =          FALSE

   => Exchange-Correlation Functionals <=

    1.0000   wB97D range-separated functional

   => Exact (HF) Exchange <=

    0.7780            HF,LR [omega = 0.2000]
    0.2220               HF 

   => Molecular Quadrature <=

    Radial Scheme          =       TREUTLER
    Pruning Scheme         =           FLAT
    Nuclear Scheme         =       TREUTLER

    BS radius alpha        =              1
    Pruning alpha          =              1
    Radial Points          =             75
    Spherical Points       =            302
    Total Points           =         588900
    Total Blocks           =           4379
    Max Points             =            256
    Max Functions          =            436

   => WB97X-D: Empirical Dispersion <=

    Chai and Head-Gordon Dispersion Correction
    Chai, J.-D.; Head-Gordon, M. (2010), J. Chem. Phys., 132: 6615-6620

        s6 =       1.000000

   => Loading Basis Set <=

    Name: (AUG-CC-PVDZ AUX)
    Role: JKFIT
    Keyword: DF_BASIS_SCF
    atoms 1             entry N          line   212 file /fsx/users/francis/anaconda3/envs/poltype-dev/share/psi4/basis/aug-cc-pvdz-jkfit.gbs 
    atoms 2-3, 6-12, 14 entry C          line   154 file /fsx/users/francis/anaconda3/envs/poltype-dev/share/psi4/basis/aug-cc-pvdz-jkfit.gbs 
    atoms 4-5           entry F          line   328 file /fsx/users/francis/anaconda3/envs/poltype-dev/share/psi4/basis/aug-cc-pvdz-jkfit.gbs 
    atoms 13            entry S          line   690 file /fsx/users/francis/anaconda3/envs/poltype-dev/share/psi4/basis/aug-cc-pvdz-jkfit.gbs 
    atoms 15-16, 24     entry O          line   270 file /fsx/users/francis/anaconda3/envs/poltype-dev/share/psi4/basis/aug-cc-pvdz-jkfit.gbs 
    atoms 17-23, 25-26  entry H          line    70 file /fsx/users/francis/anaconda3/envs/poltype-dev/share/psi4/basis/aug-cc-pvdz-jkfit.gbs 

  ==> Pre-Iterations <==

   -------------------------------------------------------
    Irrep   Nso     Nmo     Nalpha   Nbeta   Ndocc  Nsocc
   -------------------------------------------------------
     A        476     476       0       0       0       0
   -------------------------------------------------------
    Total     476     476      62      62      62       0
   -------------------------------------------------------

  ==> Integral Setup <==

  ==> DiskDFJK: Density-Fitted J/K Matrices <==

    J tasked:                  Yes
    K tasked:                  Yes
    wK tasked:                 Yes
    Omega:               2.000E-01
    OpenMP threads:              8
    Integrals threads:           8
    Memory [MiB]:             5810
    Algorithm:                Core
    Integral Cache:           NONE
    Schwarz Cutoff:          1E-12
    Fitting Condition:       1E-10

   => Auxiliary Basis Set <=

  Basis Set: (AUG-CC-PVDZ AUX)
    Blend: AUG-CC-PVDZ-JKFIT
    Number of shells: 596
    Number of basis function: 1792
    Number of Cartesian functions: 2081
    Spherical Harmonics?: true
    Max angular momentum: 3

  Cached 100.0% of DFT collocation blocks in 5.501 [GiB].

  Minimum eigenvalue in the overlap matrix is 1.3786891703E-06.
  Using Symmetric Orthogonalization.

  SCF Guess: Superposition of Atomic Densities via on-the-fly atomic UHF.

  ==> Iterations <==

                           Total Energy        Delta E     RMS |[F,P]|

   @DF-RKS iter SAD: -1187.39107303588003   -1.18739e+03   0.00000e+00 
   @DF-RKS iter   1: -1187.69135749455063   -3.00284e-01   2.21341e-03 DIIS
   @DF-RKS iter   2: -1187.69961841576878   -8.26092e-03   2.40503e-03 DIIS
   @DF-RKS iter   3: -1188.17546851336738   -4.75850e-01   5.66851e-04 DIIS
   @DF-RKS iter   4: -1188.20374503931794   -2.82765e-02   1.48425e-04 DIIS
   @DF-RKS iter   5: -1188.20594844550328   -2.20341e-03   4.24415e-05 DIIS
   @DF-RKS iter   6: -1188.20617173259348   -2.23287e-04   1.44256e-05 DIIS
   @DF-RKS iter   7: -1188.20619790902811   -2.61764e-05   4.47733e-06 DIIS
   @DF-RKS iter   8: -1188.20620287323300   -4.96420e-06   1.64856e-06 DIIS
   @DF-RKS iter   9: -1188.20620408076638   -1.20753e-06   1.05760e-06 DIIS
   @DF-RKS iter  10: -1188.20620432680221   -2.46036e-07   3.76483e-07 DIIS
  Energy and wave function converged.


  ==> Post-Iterations <==

    Orbital Energies [Eh]
    ---------------------

    Doubly Occupied:                                                      

       1A    -89.069941     2A    -24.879017     3A    -24.868493  
       4A    -19.304047     5A    -19.288079     6A    -14.536861  
       7A    -10.509207     8A    -10.455433     9A    -10.436365  
      10A    -10.407892    11A    -10.379031    12A    -10.356649  
      13A    -10.352156    14A    -10.350183    15A    -10.345720  
      16A    -10.343876    17A     -8.087446    18A     -6.037319  
      19A     -6.033184    20A     -6.026222    21A     -1.384396  
      22A     -1.326666    23A     -1.190300    24A     -1.179916  
      25A     -1.094064    26A     -1.000643    27A     -0.938482  
      28A     -0.903627    29A     -0.888627    30A     -0.866700  
      31A     -0.792711    32A     -0.765817    33A     -0.752140  
      34A     -0.740120    35A     -0.695489    36A     -0.678195  
      37A     -0.668030    38A     -0.643622    39A     -0.628589  
      40A     -0.590992    41A     -0.579523    42A     -0.568194  
      43A     -0.563260    44A     -0.557298    45A     -0.554921  
      46A     -0.549644    47A     -0.538742    48A     -0.533987  
      49A     -0.527359    50A     -0.516948    51A     -0.511411  
      52A     -0.500759    53A     -0.494104    54A     -0.480096  
      55A     -0.474187    56A     -0.441316    57A     -0.420539  
      58A     -0.398005    59A     -0.371692    60A     -0.368314  
      61A     -0.340380    62A     -0.332515  

    Virtual:                                                              

      63A     -0.057211    64A      0.006676    65A      0.023686  
      66A      0.032311    67A      0.036156    68A      0.040257  
      69A      0.048479    70A      0.051860    71A      0.058045  
      72A      0.060368    73A      0.065312    74A      0.075282  
      75A      0.077301    76A      0.080284    77A      0.091268  
      78A      0.095557    79A      0.100284    80A      0.105966  
      81A      0.107425    82A      0.112950    83A      0.116493  
      84A      0.119057    85A      0.122881    86A      0.128027  
      87A      0.131168    88A      0.132603    89A      0.135848  
      90A      0.144512    91A      0.145874    92A      0.150711  
      93A      0.152821    94A      0.156618    95A      0.163805  
      96A      0.165419    97A      0.168581    98A      0.170148  
      99A      0.175137   100A      0.178560   101A      0.178948  
     102A      0.182060   103A      0.187708   104A      0.194080  
     105A      0.199728   106A      0.203039   107A      0.206438  
     108A      0.211364   109A      0.214444   110A      0.218521  
     111A      0.223908   112A      0.230863   113A      0.234751  
     114A      0.235608   115A      0.239193   116A      0.242508  
     117A      0.243743   118A      0.251438   119A      0.257081  
     120A      0.260937   121A      0.262549   122A      0.263591  
     123A      0.271215   124A      0.275424   125A      0.276792  
     126A      0.278610   127A      0.283021   128A      0.287222  
     129A      0.288263   130A      0.291120   131A      0.292761  
     132A      0.300092   133A      0.306151   134A      0.308677  
     135A      0.314156   136A      0.317177   137A      0.320885  
     138A      0.327545   139A      0.332050   140A      0.336663  
     141A      0.341236   142A      0.344772   143A      0.346890  
     144A      0.348515   145A      0.357341   146A      0.362127  
     147A      0.366142   148A      0.370502   149A      0.372086  
     150A      0.378323   151A      0.379758   152A      0.385954  
     153A      0.387131   154A      0.390431   155A      0.397245  
     156A      0.406283   157A      0.410577   158A      0.412116  
     159A      0.414355   160A      0.419559   161A      0.427858  
     162A      0.430534   163A      0.434344   164A      0.443614  
     165A      0.447631   166A      0.451557   167A      0.460115  
     168A      0.468072   169A      0.471631   170A      0.477094  
     171A      0.483639   172A      0.489143   173A      0.495307  
     174A      0.497108   175A      0.501353   176A      0.502260  
     177A      0.509435   178A      0.513999   179A      0.520012  
     180A      0.525755   181A      0.527193   182A      0.528588  
     183A      0.540017   184A      0.542152   185A      0.546445  
     186A      0.553213   187A      0.555000   188A      0.561403  
     189A      0.566779   190A      0.570731   191A      0.576074  
     192A      0.583502   193A      0.594321   194A      0.598270  
     195A      0.604019   196A      0.605632   197A      0.614461  
     198A      0.618134   199A      0.623131   200A      0.629564  
     201A      0.634044   202A      0.634866   203A      0.640359  
     204A      0.645387   205A      0.646197   206A      0.654071  
     207A      0.657180   208A      0.663398   209A      0.670376  
     210A      0.672816   211A      0.676871   212A      0.682087  
     213A      0.684422   214A      0.688074   215A      0.697101  
     216A      0.701084   217A      0.702810   218A      0.709260  
     219A      0.713979   220A      0.720853   221A      0.728508  
     222A      0.732019   223A      0.738306   224A      0.754713  
     225A      0.759022   226A      0.767362   227A      0.772026  
     228A      0.773045   229A      0.785054   230A      0.789601  
     231A      0.800625   232A      0.805022   233A      0.810964  
     234A      0.812548   235A      0.823681   236A      0.826288  
     237A      0.829694   238A      0.834762   239A      0.842205  
     240A      0.847802   241A      0.850394   242A      0.857164  
     243A      0.862365   244A      0.881019   245A      0.884933  
     246A      0.886975   247A      0.895148   248A      0.899770  
     249A      0.909687   250A      0.922179   251A      0.928886  
     252A      0.942192   253A      0.951546   254A      0.953205  
     255A      0.965628   256A      0.975809   257A      0.978219  
     258A      0.992073   259A      0.998422   260A      1.010305  
     261A      1.014606   262A      1.035510   263A      1.039743  
     264A      1.049859   265A      1.060365   266A      1.062511  
     267A      1.074657   268A      1.088962   269A      1.093243  
     270A      1.104761   271A      1.107575   272A      1.120368  
     273A      1.128626   274A      1.142065   275A      1.147169  
     276A      1.149345   277A      1.152835   278A      1.165034  
     279A      1.178139   280A      1.184402   281A      1.200094  
     282A      1.210676   283A      1.211175   284A      1.235769  
     285A      1.241543   286A      1.254342   287A      1.256844  
     288A      1.270298   289A      1.281527   290A      1.287531  
     291A      1.298708   292A      1.300158   293A      1.305145  
     294A      1.323171   295A      1.333567   296A      1.336392  
     297A      1.346375   298A      1.354013   299A      1.363118  
     300A      1.372423   301A      1.377912   302A      1.385703  
     303A      1.401714   304A      1.417459   305A      1.422868  
     306A      1.431622   307A      1.437550   308A      1.444975  
     309A      1.454705   310A      1.465466   311A      1.473732  
     312A      1.485890   313A      1.490019   314A      1.503897  
     315A      1.515060   316A      1.524694   317A      1.530439  
     318A      1.540855   319A      1.551328   320A      1.554435  
     321A      1.561117   322A      1.570856   323A      1.578394  
     324A      1.593290   325A      1.594861   326A      1.607076  
     327A      1.609343   328A      1.613875   329A      1.626862  
     330A      1.637538   331A      1.641339   332A      1.653993  
     333A      1.657470   334A      1.663580   335A      1.675412  
     336A      1.676787   337A      1.687238   338A      1.699527  
     339A      1.708164   340A      1.713715   341A      1.726562  
     342A      1.737538   343A      1.745469   344A      1.749348  
     345A      1.758249   346A      1.775437   347A      1.791181  
     348A      1.792832   349A      1.799321   350A      1.807856  
     351A      1.822556   352A      1.827566   353A      1.851641  
     354A      1.860792   355A      1.867799   356A      1.879359  
     357A      1.881012   358A      1.890116   359A      1.896556  
     360A      1.900611   361A      1.916075   362A      1.925202  
     363A      1.944388   364A      1.949681   365A      1.952180  
     366A      1.967183   367A      1.969376   368A      1.983426  
     369A      1.999514   370A      2.003319   371A      2.017604  
     372A      2.027226   373A      2.035580   374A      2.049108  
     375A      2.050785   376A      2.065205   377A      2.079384  
     378A      2.085080   379A      2.096536   380A      2.108845  
     381A      2.118629   382A      2.129408   383A      2.143185  
     384A      2.159708   385A      2.167031   386A      2.183775  
     387A      2.194752   388A      2.207032   389A      2.210915  
     390A      2.224130   391A      2.234247   392A      2.239600  
     393A      2.269532   394A      2.291838   395A      2.296391  
     396A      2.319035   397A      2.333180   398A      2.338522  
     399A      2.348034   400A      2.355008   401A      2.366599  
     402A      2.375731   403A      2.399846   404A      2.428884  
     405A      2.450829   406A      2.463823   407A      2.490095  
     408A      2.503964   409A      2.513328   410A      2.539393  
     411A      2.558189   412A      2.587161   413A      2.601071  
     414A      2.625379   415A      2.635491   416A      2.653572  
     417A      2.670937   418A      2.682248   419A      2.684490  
     420A      2.703161   421A      2.713560   422A      2.727176  
     423A      2.738369   424A      2.753721   425A      2.777142  
     426A      2.810017   427A      2.865520   428A      2.914951  
     429A      2.975691   430A      2.989849   431A      3.031390  
     432A      3.048761   433A      3.123880   434A      3.183054  
     435A      3.242982   436A      3.386954   437A      3.401741  
     438A      3.408879   439A      3.462844   440A      3.473501  
     441A      3.495564   442A      3.532382   443A      3.536738  
     444A      3.548447   445A      3.579972   446A      3.602739  
     447A      3.627758   448A      3.672410   449A      3.716959  
     450A      3.768865   451A      3.808211   452A      3.895938  
     453A      3.898574   454A      4.033770   455A      4.250142  
     456A      4.314567   457A      4.520664   458A      4.636235  
     459A      4.677396   460A      4.719057   461A      4.730348  
     462A      4.761837   463A      4.778751   464A      4.797425  
     465A      4.830528   466A      4.885080   467A      4.944167  
     468A      5.060202   469A      5.121109   470A      5.181591  
     471A      5.329371   472A      5.642907   473A      6.083942  
     474A      6.696510   475A      7.090053   476A     33.569321  

    Final Occupation by Irrep:
              A 
    DOCC [    62 ]

  @DF-RKS Final Energy: -1188.20620432680221

   => Energetics <=

    Nuclear Repulsion Energy =           1178.1053402470731726
    One-Electron Energy =               -3970.6463369816524391
    Two-Electron Energy =                1693.8869045273534084
    DFT Exchange-Correlation Energy =     -89.5386629782728676
    Empirical Dispersion Energy =          -0.0134491413032513
    VV10 Nonlocal Energy =                  0.0000000000000000
    Total Energy =                      -1188.2062043268022080

Computation Completed


Properties will be evaluated at   0.000000,   0.000000,   0.000000 [a0]

Properties computed using the SCF density matrix

  Nuclear Dipole Moment: [e a0]
     X:    69.1690      Y:    -7.6452      Z:    23.0341

  Electronic Dipole Moment: [e a0]
     X:   -66.6145      Y:     7.2163      Z:   -23.3619

  Dipole Moment: [e a0]
     X:     2.5546      Y:    -0.4289      Z:    -0.3277     Total:     2.6110

  Dipole Moment: [D]
     X:     6.4931      Y:    -1.0900      Z:    -0.8330     Total:     6.6364


*** tstop() called on cpu-spot-dy-c5n2xlarge-1 at Tue Jun 22 16:37:25 2021
Module time:
	user time   =     912.05 seconds =      15.20 minutes
	system time =       9.12 seconds =       0.15 minutes
	total time  =        124 seconds =       2.07 minutes
Total time:
	user time   =    1511.54 seconds =      25.19 minutes
	system time =      16.36 seconds =       0.27 minutes
	total time  =        207 seconds =       3.45 minutes

       N-Body: Complex Energy (fragments = (1,), basis = (1, 2): -1188.20620432680221)

       N-Body: Computing complex (4/4) with fragments (1,) in the basis of fragments (1,).


*** tstart() called on cpu-spot-dy-c5n2xlarge-1
*** at Tue Jun 22 16:37:25 2021

   => Loading Basis Set <=

    Name: AUG-CC-PVDZ
    Role: ORBITAL
    Keyword: BASIS
    atoms 1             entry N          line   214 file /fsx/users/francis/anaconda3/envs/poltype-dev/share/psi4/basis/aug-cc-pvdz.gbs 
    atoms 2-3, 6-12, 14 entry C          line   178 file /fsx/users/francis/anaconda3/envs/poltype-dev/share/psi4/basis/aug-cc-pvdz.gbs 
    atoms 4-5           entry F          line   286 file /fsx/users/francis/anaconda3/envs/poltype-dev/share/psi4/basis/aug-cc-pvdz.gbs 
    atoms 13            entry S          line   698 file /fsx/users/francis/anaconda3/envs/poltype-dev/share/psi4/basis/aug-cc-pvdz.gbs 
    atoms 15-16         entry O          line   250 file /fsx/users/francis/anaconda3/envs/poltype-dev/share/psi4/basis/aug-cc-pvdz.gbs 
    atoms 17-23         entry H          line    36 file /fsx/users/francis/anaconda3/envs/poltype-dev/share/psi4/basis/aug-cc-pvdz.gbs 


         ---------------------------------------------------------
                                   SCF
               by Justin Turney, Rob Parrish, Andy Simmonett
                          and Daniel G. A. Smith
                              RKS Reference
                        8 Threads,  15258 MiB Core
         ---------------------------------------------------------

  ==> Geometry <==

    Molecular point group: c1
    Full point group: C1

    Geometry (in Angstrom), charge = 0, multiplicity = 1:

       Center              X                  Y                   Z               Mass       
    ------------   -----------------  -----------------  -----------------  -----------------
         N           -0.734104940054    -1.524146298683     0.199832036980    14.003074004430
         C           -1.999343940054    -1.273432298683     0.664382036980    12.000000000000
         C           -2.297125940054     0.214745701317     1.040381036980    12.000000000000
         F           -3.581074940054     0.520223701317     0.623024036980    18.998403162730
         F           -2.274398940054     0.303534701317     2.413637036980    18.998403162730
         C           -1.307385940054     1.292102701317     0.472092036980    12.000000000000
         C            0.012877059946     0.811397701317     0.000425036980    12.000000000000
         C            0.997536059946     1.730973701317    -0.421807963020    12.000000000000
         C            2.254261059946     1.291536701317    -0.856413963020    12.000000000000
         C            2.547266059946    -0.095932298683    -0.901727963020    12.000000000000
         C            1.546552059946    -1.019825298683    -0.530894963020    12.000000000000
         C            0.282747059946    -0.583285298683    -0.097213963020    12.000000000000
         S            4.101786059946    -0.764503298683    -1.414916963020    31.972071174400
         C            5.135117059946    -0.611301298683     0.063662036980    12.000000000000
         O           -2.801064940054    -2.185487298683     0.816274036980    15.994914619570
         O           -1.596861940054     2.486477701317     0.499087036980    15.994914619570
         H            2.995773059946     2.035349701317    -1.146576963020     1.007825032230
         H            0.758786059946     2.794341701317    -0.388190963020     1.007825032230
         H           -0.581659940054    -2.504806298683     0.009743036980     1.007825032230
         H            1.760982059946    -2.088852298683    -0.568383963020     1.007825032230
         H            5.359330059946     0.445210701317     0.239379036980     1.007825032230
         H            4.601923059946    -1.024243298683     0.925743036980     1.007825032230
         H            6.065380059946    -1.165204298683    -0.092859963020     1.007825032230

  Running in c1 symmetry.

  Rotational constants: A =      0.03550  B =      0.00828  C =      0.00729 [cm^-1]
  Rotational constants: A =   1064.14583  B =    248.32966  C =    218.43044 [MHz]
  Nuclear repulsion = 1178.105340247073173

  Charge       = 0
  Multiplicity = 1
  Electrons    = 124
  Nalpha       = 62
  Nbeta        = 62

  ==> Algorithm <==

  SCF Algorithm Type is DF.
  DIIS enabled.
  MOM disabled.
  Fractional occupation disabled.
  Guess Type is SAD.
  Energy threshold   = 1.00e-06
  Density threshold  = 1.00e-06
  Integral threshold = 0.00e+00

  ==> Primary Basis <==

  Basis Set: AUG-CC-PVDZ
    Blend: AUG-CC-PVDZ
    Number of shells: 181
    Number of basis function: 435
    Number of Cartesian functions: 467
    Spherical Harmonics?: true
    Max angular momentum: 2

  ==> DFT Potential <==

   => Composite Functional: WB97X-D <= 

    wB97X-D Hyb-GGA Exchange-Correlation Functional

    J.-D. Chai and M. Head-Gordon, Phys. Chem. Chem. Phys. 10, 6615 (2008)

    Deriv               =              1
    GGA                 =           TRUE
    Meta                =          FALSE

    Exchange Hybrid     =           TRUE
    MP2 Hybrid          =          FALSE

   => Exchange-Correlation Functionals <=

    1.0000   wB97D range-separated functional

   => Exact (HF) Exchange <=

    0.7780            HF,LR [omega = 0.2000]
    0.2220               HF 

   => Molecular Quadrature <=

    Radial Scheme          =       TREUTLER
    Pruning Scheme         =           FLAT
    Nuclear Scheme         =       TREUTLER

    BS radius alpha        =              1
    Pruning alpha          =              1
    Radial Points          =             75
    Spherical Points       =            302
    Total Points           =         520950
    Total Blocks           =           3838
    Max Points             =            256
    Max Functions          =            395

   => WB97X-D: Empirical Dispersion <=

    Chai and Head-Gordon Dispersion Correction
    Chai, J.-D.; Head-Gordon, M. (2010), J. Chem. Phys., 132: 6615-6620

        s6 =       1.000000

   => Loading Basis Set <=

    Name: (AUG-CC-PVDZ AUX)
    Role: JKFIT
    Keyword: DF_BASIS_SCF
    atoms 1             entry N          line   212 file /fsx/users/francis/anaconda3/envs/poltype-dev/share/psi4/basis/aug-cc-pvdz-jkfit.gbs 
    atoms 2-3, 6-12, 14 entry C          line   154 file /fsx/users/francis/anaconda3/envs/poltype-dev/share/psi4/basis/aug-cc-pvdz-jkfit.gbs 
    atoms 4-5           entry F          line   328 file /fsx/users/francis/anaconda3/envs/poltype-dev/share/psi4/basis/aug-cc-pvdz-jkfit.gbs 
    atoms 13            entry S          line   690 file /fsx/users/francis/anaconda3/envs/poltype-dev/share/psi4/basis/aug-cc-pvdz-jkfit.gbs 
    atoms 15-16         entry O          line   270 file /fsx/users/francis/anaconda3/envs/poltype-dev/share/psi4/basis/aug-cc-pvdz-jkfit.gbs 
    atoms 17-23         entry H          line    70 file /fsx/users/francis/anaconda3/envs/poltype-dev/share/psi4/basis/aug-cc-pvdz-jkfit.gbs 

  ==> Pre-Iterations <==

   -------------------------------------------------------
    Irrep   Nso     Nmo     Nalpha   Nbeta   Ndocc  Nsocc
   -------------------------------------------------------
     A        435     435       0       0       0       0
   -------------------------------------------------------
    Total     435     435      62      62      62       0
   -------------------------------------------------------

  ==> Integral Setup <==

  ==> DiskDFJK: Density-Fitted J/K Matrices <==

    J tasked:                  Yes
    K tasked:                  Yes
    wK tasked:                 Yes
    Omega:               2.000E-01
    OpenMP threads:              8
    Integrals threads:           8
    Memory [MiB]:             6790
    Algorithm:                Core
    Integral Cache:           NONE
    Schwarz Cutoff:          1E-12
    Fitting Condition:       1E-10

   => Auxiliary Basis Set <=

  Basis Set: (AUG-CC-PVDZ AUX)
    Blend: AUG-CC-PVDZ-JKFIT
    Number of shells: 544
    Number of basis function: 1642
    Number of Cartesian functions: 1910
    Spherical Harmonics?: true
    Max angular momentum: 3

  Cached 100.0% of DFT collocation blocks in 4.545 [GiB].

  Minimum eigenvalue in the overlap matrix is 1.4648872091E-06.
  Using Symmetric Orthogonalization.

  SCF Guess: Superposition of Atomic Densities via on-the-fly atomic UHF.

  ==> Iterations <==

                           Total Energy        Delta E     RMS |[F,P]|

   @DF-RKS iter SAD: -1187.39121144872252   -1.18739e+03   0.00000e+00 
   @DF-RKS iter   1: -1187.69039121796550   -2.99180e-01   2.42064e-03 DIIS
   @DF-RKS iter   2: -1187.69849258031786   -8.10136e-03   2.63125e-03 DIIS
   @DF-RKS iter   3: -1188.17457843404077   -4.76086e-01   6.19760e-04 DIIS
   @DF-RKS iter   4: -1188.20282775166243   -2.82493e-02   1.62121e-04 DIIS
   @DF-RKS iter   5: -1188.20502464532274   -2.19689e-03   4.64159e-05 DIIS
   @DF-RKS iter   6: -1188.20524779731454   -2.23152e-04   1.57684e-05 DIIS
   @DF-RKS iter   7: -1188.20527392527401   -2.61280e-05   4.89147e-06 DIIS
   @DF-RKS iter   8: -1188.20527888009269   -4.95482e-06   1.80171e-06 DIIS
   @DF-RKS iter   9: -1188.20528008711017   -1.20702e-06   1.15588e-06 DIIS
   @DF-RKS iter  10: -1188.20528033275764   -2.45647e-07   4.11494e-07 DIIS
  Energy and wave function converged.


  ==> Post-Iterations <==

    Orbital Energies [Eh]
    ---------------------

    Doubly Occupied:                                                      

       1A    -89.069951     2A    -24.878946     3A    -24.868362  
       4A    -19.303956     5A    -19.288023     6A    -14.536963  
       7A    -10.509440     8A    -10.455540     9A    -10.436379  
      10A    -10.408002    11A    -10.379103    12A    -10.356730  
      13A    -10.352228    14A    -10.350257    15A    -10.345749  
      16A    -10.343934    17A     -8.087469    18A     -6.037339  
      19A     -6.033210    20A     -6.026242    21A     -1.384555  
      22A     -1.326831    23A     -1.190382    24A     -1.180041  
      25A     -1.094149    26A     -1.000718    27A     -0.938556  
      28A     -0.903716    29A     -0.888701    30A     -0.866780  
      31A     -0.792787    32A     -0.765897    33A     -0.752231  
      34A     -0.740200    35A     -0.695597    36A     -0.678294  
      37A     -0.668139    38A     -0.643703    39A     -0.628686  
      40A     -0.591077    41A     -0.579605    42A     -0.568287  
      43A     -0.563334    44A     -0.557365    45A     -0.555015  
      46A     -0.549744    47A     -0.538824    48A     -0.534015  
      49A     -0.527423    50A     -0.517053    51A     -0.511491  
      52A     -0.500837    53A     -0.494192    54A     -0.480166  
      55A     -0.474275    56A     -0.441369    57A     -0.420590  
      58A     -0.398085    59A     -0.371783    60A     -0.368363  
      61A     -0.340427    62A     -0.332550  

    Virtual:                                                              

      63A     -0.057326    64A      0.006649    65A      0.023891  
      66A      0.032490    67A      0.036422    68A      0.041189  
      69A      0.048626    70A      0.057420    71A      0.058582  
      72A      0.064853    73A      0.072612    74A      0.077322  
      75A      0.082791    76A      0.090451    77A      0.093723  
      78A      0.101605    79A      0.105623    80A      0.110990  
      81A      0.111572    82A      0.115807    83A      0.119780  
      84A      0.123578    85A      0.129380    86A      0.133078  
      87A      0.136331    88A      0.139648    89A      0.146954  
      90A      0.150403    91A      0.154978    92A      0.158311  
      93A      0.159028    94A      0.165632    95A      0.168686  
      96A      0.172019    97A      0.174615    98A      0.174917  
      99A      0.180820   100A      0.181730   101A      0.188202  
     102A      0.192599   103A      0.198679   104A      0.204461  
     105A      0.209462   106A      0.212973   107A      0.215807  
     108A      0.221935   109A      0.226108   110A      0.229214  
     111A      0.232818   112A      0.236688   113A      0.239184  
     114A      0.246387   115A      0.248862   116A      0.252297  
     117A      0.258521   118A      0.260140   119A      0.263306  
     120A      0.268748   121A      0.272749   122A      0.278170  
     123A      0.279665   124A      0.281961   125A      0.287651  
     126A      0.294496   127A      0.297389   128A      0.302711  
     129A      0.306557   130A      0.309156   131A      0.310864  
     132A      0.321643   133A      0.324472   134A      0.327289  
     135A      0.328468   136A      0.336089   137A      0.340075  
     138A      0.343909   139A      0.347661   140A      0.352243  
     141A      0.360864   142A      0.363512   143A      0.367145  
     144A      0.373968   145A      0.375573   146A      0.379171  
     147A      0.382550   148A      0.385653   149A      0.388754  
     150A      0.390244   151A      0.402484   152A      0.407283  
     153A      0.411886   154A      0.414114   155A      0.416680  
     156A      0.419824   157A      0.431564   158A      0.435957  
     159A      0.440140   160A      0.442825   161A      0.450625  
     162A      0.461569   163A      0.465526   164A      0.473076  
     165A      0.479838   166A      0.485065   167A      0.487982  
     168A      0.490890   169A      0.497342   170A      0.504121  
     171A      0.512191   172A      0.515385   173A      0.522083  
     174A      0.531268   175A      0.533732   176A      0.540582  
     177A      0.542746   178A      0.547513   179A      0.551124  
     180A      0.563316   181A      0.567236   182A      0.577393  
     183A      0.581658   184A      0.589353   185A      0.595364  
     186A      0.601614   187A      0.604891   188A      0.614835  
     189A      0.618643   190A      0.621699   191A      0.628356  
     192A      0.635537   193A      0.636209   194A      0.640154  
     195A      0.643853   196A      0.652127   197A      0.657215  
     198A      0.663010   199A      0.667345   200A      0.673111  
     201A      0.675616   202A      0.680267   203A      0.687933  
     204A      0.693581   205A      0.698129   206A      0.703914  
     207A      0.708921   208A      0.718257   209A      0.727854  
     210A      0.733236   211A      0.743902   212A      0.751512  
     213A      0.752756   214A      0.754591   215A      0.764953  
     216A      0.770424   217A      0.773879   218A      0.781796  
     219A      0.790584   220A      0.795059   221A      0.802428  
     222A      0.805403   223A      0.813649   224A      0.820533  
     225A      0.827209   226A      0.836543   227A      0.837994  
     228A      0.842201   229A      0.850117   230A      0.854854  
     231A      0.868926   232A      0.872950   233A      0.882027  
     234A      0.891567   235A      0.901692   236A      0.915006  
     237A      0.921427   238A      0.929866   239A      0.941543  
     240A      0.948677   241A      0.951573   242A      0.970823  
     243A      0.972229   244A      0.987984   245A      0.995869  
     246A      1.000849   247A      1.013891   248A      1.028298  
     249A      1.036623   250A      1.044344   251A      1.057068  
     252A      1.066533   253A      1.072569   254A      1.084672  
     255A      1.097478   256A      1.099245   257A      1.107730  
     258A      1.114231   259A      1.132903   260A      1.140087  
     261A      1.146294   262A      1.147421   263A      1.159503  
     264A      1.179253   265A      1.191026   266A      1.195813  
     267A      1.215423   268A      1.218020   269A      1.226644  
     270A      1.243611   271A      1.260133   272A      1.271854  
     273A      1.275917   274A      1.285979   275A      1.291128  
     276A      1.298626   277A      1.315559   278A      1.319853  
     279A      1.337246   280A      1.347460   281A      1.356921  
     282A      1.359291   283A      1.364799   284A      1.386120  
     285A      1.388299   286A      1.408152   287A      1.412863  
     288A      1.422266   289A      1.432658   290A      1.443357  
     291A      1.458764   292A      1.469314   293A      1.472245  
     294A      1.485212   295A      1.497141   296A      1.503661  
     297A      1.522329   298A      1.532688   299A      1.541627  
     300A      1.548131   301A      1.554164   302A      1.562107  
     303A      1.564898   304A      1.581012   305A      1.583544  
     306A      1.591029   307A      1.605058   308A      1.607811  
     309A      1.610361   310A      1.619715   311A      1.628891  
     312A      1.636671   313A      1.647526   314A      1.653604  
     315A      1.667634   316A      1.672260   317A      1.685003  
     318A      1.691090   319A      1.697371   320A      1.715860  
     321A      1.729241   322A      1.732521   323A      1.735918  
     324A      1.752300   325A      1.756369   326A      1.765112  
     327A      1.780456   328A      1.791108   329A      1.807586  
     330A      1.817655   331A      1.822990   332A      1.837771  
     333A      1.844774   334A      1.862780   335A      1.874569  
     336A      1.883356   337A      1.886144   338A      1.894181  
     339A      1.911629   340A      1.917231   341A      1.929373  
     342A      1.931169   343A      1.947659   344A      1.959074  
     345A      1.964163   346A      1.970419   347A      1.984078  
     348A      1.993700   349A      1.998658   350A      2.018370  
     351A      2.022308   352A      2.036270   353A      2.051314  
     354A      2.061234   355A      2.076188   356A      2.084278  
     357A      2.093561   358A      2.094082   359A      2.122939  
     360A      2.131408   361A      2.138312   362A      2.155605  
     363A      2.169452   364A      2.171339   365A      2.199788  
     366A      2.203235   367A      2.217626   368A      2.225129  
     369A      2.236144   370A      2.269496   371A      2.285182  
     372A      2.304524   373A      2.310310   374A      2.324990  
     375A      2.334351   376A      2.341918   377A      2.352917  
     378A      2.364631   379A      2.385329   380A      2.405307  
     381A      2.411730   382A      2.443799   383A      2.477952  
     384A      2.496130   385A      2.515305   386A      2.542174  
     387A      2.566759   388A      2.597427   389A      2.612598  
     390A      2.642082   391A      2.662586   392A      2.665247  
     393A      2.685402   394A      2.694739   395A      2.710246  
     396A      2.728588   397A      2.748975   398A      2.775760  
     399A      2.852577   400A      2.945998   401A      2.959810  
     402A      3.013252   403A      3.025247   404A      3.095017  
     405A      3.125630   406A      3.162297   407A      3.354148  
     408A      3.379269   409A      3.387710   410A      3.429533  
     411A      3.458560   412A      3.469754   413A      3.485506  
     414A      3.502473   415A      3.535904   416A      3.551877  
     417A      3.561273   418A      3.598127   419A      3.682749  
     420A      3.703679   421A      3.759059   422A      3.831358  
     423A      3.858701   424A      3.970726   425A      4.456320  
     426A      4.623592   427A      4.664167   428A      4.688325  
     429A      4.722755   430A      4.746293   431A      4.751475  
     432A      4.777991   433A      4.818762   434A      4.850821  
     435A      4.900299  

    Final Occupation by Irrep:
              A 
    DOCC [    62 ]

  @DF-RKS Final Energy: -1188.20528033275764

   => Energetics <=

    Nuclear Repulsion Energy =           1178.1053402470731726
    One-Electron Energy =               -3970.6363475769403522
    Two-Electron Energy =                1693.8774013267866394
    DFT Exchange-Correlation Energy =     -89.5382251883741276
    Empirical Dispersion Energy =          -0.0134491413032513
    VV10 Nonlocal Energy =                  0.0000000000000000
    Total Energy =                      -1188.2052803327576385

Computation Completed


Properties will be evaluated at   0.361343,  -0.044770,   0.221283 [a0]

Properties computed using the SCF density matrix

  Nuclear Dipole Moment: [e a0]
     X:    24.3625      Y:    -2.0937      Z:    -4.4049

  Electronic Dipole Moment: [e a0]
     X:   -21.8058      Y:     1.6646      Z:     4.0768

  Dipole Moment: [e a0]
     X:     2.5567      Y:    -0.4292      Z:    -0.3282     Total:     2.6132

  Dipole Moment: [D]
     X:     6.4985      Y:    -1.0908      Z:    -0.8341     Total:     6.6420


*** tstop() called on cpu-spot-dy-c5n2xlarge-1 at Tue Jun 22 16:38:57 2021
Module time:
	user time   =     686.26 seconds =      11.44 minutes
	system time =       7.54 seconds =       0.13 minutes
	total time  =         92 seconds =       1.53 minutes
Total time:
	user time   =    2197.85 seconds =      36.63 minutes
	system time =      23.90 seconds =       0.40 minutes
	total time  =        299 seconds =       4.98 minutes

       N-Body: Complex Energy (fragments = (1,), basis = (1,): -1188.20528033275764)

   ==> N-Body: Now computing 2-body complexes <==


       N-Body: Computing complex (1/1) with fragments (1, 2) in the basis of fragments (1, 2).


*** tstart() called on cpu-spot-dy-c5n2xlarge-1
*** at Tue Jun 22 16:38:57 2021

   => Loading Basis Set <=

    Name: AUG-CC-PVDZ
    Role: ORBITAL
    Keyword: BASIS
    atoms 1             entry N          line   214 file /fsx/users/francis/anaconda3/envs/poltype-dev/share/psi4/basis/aug-cc-pvdz.gbs 
    atoms 2-3, 6-12, 14 entry C          line   178 file /fsx/users/francis/anaconda3/envs/poltype-dev/share/psi4/basis/aug-cc-pvdz.gbs 
    atoms 4-5           entry F          line   286 file /fsx/users/francis/anaconda3/envs/poltype-dev/share/psi4/basis/aug-cc-pvdz.gbs 
    atoms 13            entry S          line   698 file /fsx/users/francis/anaconda3/envs/poltype-dev/share/psi4/basis/aug-cc-pvdz.gbs 
    atoms 15-16, 24     entry O          line   250 file /fsx/users/francis/anaconda3/envs/poltype-dev/share/psi4/basis/aug-cc-pvdz.gbs 
    atoms 17-23, 25-26  entry H          line    36 file /fsx/users/francis/anaconda3/envs/poltype-dev/share/psi4/basis/aug-cc-pvdz.gbs 


         ---------------------------------------------------------
                                   SCF
               by Justin Turney, Rob Parrish, Andy Simmonett
                          and Daniel G. A. Smith
                              RKS Reference
                        8 Threads,  15258 MiB Core
         ---------------------------------------------------------

  ==> Geometry <==

    Molecular point group: c1
    Full point group: C1

    Geometry (in Angstrom), charge = 0, multiplicity = 1:

       Center              X                  Y                   Z               Mass       
    ------------   -----------------  -----------------  -----------------  -----------------
         N           -0.734104940054    -1.524146298683     0.199832036980    14.003074004430
         C           -1.999343940054    -1.273432298683     0.664382036980    12.000000000000
         C           -2.297125940054     0.214745701317     1.040381036980    12.000000000000
[...]
         H            5.359330059946     0.445210701317     0.239379036980     1.007825032230
         H            4.601923059946    -1.024243298683     0.925743036980     1.007825032230
         H            6.065380059946    -1.165204298683    -0.092859963020     1.007825032230
         O           -2.537579340054     0.276165701317    -1.562980563020    15.994914619570
         H           -3.461733340054     0.296179701317    -1.303489563020     1.007825032230
         H           -2.372538340054     1.033491701317    -2.126628563020     1.007825032230

  Running in c1 symmetry.

  Rotational constants: A =      0.02992  B =      0.00766  C =      0.00704 [cm^-1]
  Rotational constants: A =    897.05560  B =    229.54551  C =    210.95800 [MHz]
  Nuclear repulsion = 1360.525017159937079

  Charge       = 0
  Multiplicity = 1
  Electrons    = 134
  Nalpha       = 67
  Nbeta        = 67

  ==> Algorithm <==

  SCF Algorithm Type is DF.
  DIIS enabled.
  MOM disabled.
  Fractional occupation disabled.
  Guess Type is SAD.
  Energy threshold   = 1.00e-06
  Density threshold  = 1.00e-06
  Integral threshold = 0.00e+00

  ==> Primary Basis <==

  Basis Set: AUG-CC-PVDZ
    Blend: AUG-CC-PVDZ
    Number of shells: 200
    Number of basis function: 476
    Number of Cartesian functions: 510
    Spherical Harmonics?: true
    Max angular momentum: 2

  ==> DFT Potential <==

   => Composite Functional: WB97X-D <= 

    wB97X-D Hyb-GGA Exchange-Correlation Functional

    J.-D. Chai and M. Head-Gordon, Phys. Chem. Chem. Phys. 10, 6615 (2008)

    Deriv               =              1
    GGA                 =           TRUE
    Meta                =          FALSE

    Exchange Hybrid     =           TRUE
    MP2 Hybrid          =          FALSE

   => Exchange-Correlation Functionals <=

    1.0000   wB97D range-separated functional

   => Exact (HF) Exchange <=

    0.7780            HF,LR [omega = 0.2000]
    0.2220               HF 

   => Molecular Quadrature <=

    Radial Scheme          =       TREUTLER
    Pruning Scheme         =           FLAT
    Nuclear Scheme         =       TREUTLER

    BS radius alpha        =              1
    Pruning alpha          =              1
    Radial Points          =             75
    Spherical Points       =            302
    Total Points           =         588900
    Total Blocks           =           4379
    Max Points             =            256
    Max Functions          =            436

   => WB97X-D: Empirical Dispersion <=

    Chai and Head-Gordon Dispersion Correction
    Chai, J.-D.; Head-Gordon, M. (2010), J. Chem. Phys., 132: 6615-6620

        s6 =       1.000000

   => Loading Basis Set <=

    Name: (AUG-CC-PVDZ AUX)
    Role: JKFIT
    Keyword: DF_BASIS_SCF
    atoms 1             entry N          line   212 file /fsx/users/francis/anaconda3/envs/poltype-dev/share/psi4/basis/aug-cc-pvdz-jkfit.gbs 
    atoms 2-3, 6-12, 14 entry C          line   154 file /fsx/users/francis/anaconda3/envs/poltype-dev/share/psi4/basis/aug-cc-pvdz-jkfit.gbs 
    atoms 4-5           entry F          line   328 file /fsx/users/francis/anaconda3/envs/poltype-dev/share/psi4/basis/aug-cc-pvdz-jkfit.gbs 
    atoms 13            entry S          line   690 file /fsx/users/francis/anaconda3/envs/poltype-dev/share/psi4/basis/aug-cc-pvdz-jkfit.gbs 
    atoms 15-16, 24     entry O          line   270 file /fsx/users/francis/anaconda3/envs/poltype-dev/share/psi4/basis/aug-cc-pvdz-jkfit.gbs 
    atoms 17-23, 25-26  entry H          line    70 file /fsx/users/francis/anaconda3/envs/poltype-dev/share/psi4/basis/aug-cc-pvdz-jkfit.gbs 

  ==> Pre-Iterations <==

   -------------------------------------------------------
    Irrep   Nso     Nmo     Nalpha   Nbeta   Ndocc  Nsocc
   -------------------------------------------------------
     A        476     476       0       0       0       0
   -------------------------------------------------------
    Total     476     476      67      67      67       0
   -------------------------------------------------------

  ==> Integral Setup <==

  ==> DiskDFJK: Density-Fitted J/K Matrices <==

    J tasked:                  Yes
    K tasked:                  Yes
    wK tasked:                 Yes
    Omega:               2.000E-01
    OpenMP threads:              8
    Integrals threads:           8
    Memory [MiB]:             5810
    Algorithm:                Core
    Integral Cache:           NONE
    Schwarz Cutoff:          1E-12
    Fitting Condition:       1E-10

   => Auxiliary Basis Set <=

  Basis Set: (AUG-CC-PVDZ AUX)
    Blend: AUG-CC-PVDZ-JKFIT
    Number of shells: 596
    Number of basis function: 1792
    Number of Cartesian functions: 2081
    Spherical Harmonics?: true
    Max angular momentum: 3

  Cached 100.0% of DFT collocation blocks in 5.501 [GiB].

  Minimum eigenvalue in the overlap matrix is 1.3786891703E-06.
  Using Symmetric Orthogonalization.

  SCF Guess: Superposition of Atomic Densities via on-the-fly atomic UHF.

  ==> Iterations <==

                           Total Energy        Delta E     RMS |[F,P]|

   @DF-RKS iter SAD: -1263.57652701599773   -1.26358e+03   0.00000e+00 
   @DF-RKS iter   1: -1263.99428689117644   -4.17760e-01   2.51473e-03 DIIS
   @DF-RKS iter   2: -1264.02651992695132   -3.22330e-02   2.64273e-03 DIIS
   @DF-RKS iter   3: -1264.60575730157984   -5.79237e-01   5.03601e-04 DIIS
   @DF-RKS iter   4: -1264.62669581154273   -2.09385e-02   1.86089e-04 DIIS
   @DF-RKS iter   5: -1264.62979753550212   -3.10172e-03   5.27300e-05 DIIS
   @DF-RKS iter   6: -1264.63008766637495   -2.90131e-04   1.36559e-05 DIIS
   @DF-RKS iter   7: -1264.63011458695519   -2.69206e-05   4.65314e-06 DIIS
   @DF-RKS iter   8: -1264.63011934279643   -4.75584e-06   1.98264e-06 DIIS
   @DF-RKS iter   9: -1264.63012047973734   -1.13694e-06   1.19549e-06 DIIS
   @DF-RKS iter  10: -1264.63012080151270   -3.21775e-07   3.57049e-07 DIIS
  Energy and wave function converged.


  ==> Post-Iterations <==

    Orbital Energies [Eh]
    ---------------------

    Doubly Occupied:                                                      

       1A    -89.064371     2A    -24.873494     3A    -24.869089  
       4A    -19.294452     5A    -19.292619     6A    -19.279494  
       7A    -14.525690     8A    -10.503016     9A    -10.447531  
      10A    -10.430120    11A    -10.398315    12A    -10.371092  
      13A    -10.347998    14A    -10.344390    15A    -10.342383  
      16A    -10.340817    17A    -10.336890    18A     -8.081861  
      19A     -6.031721    20A     -6.027601    21A     -6.020663  
      22A     -1.382850    23A     -1.327338    24A     -1.181800  
      25A     -1.171360    26A     -1.140837    27A     -1.083433  
      28A     -0.992606    29A     -0.931059    30A     -0.896105  
      31A     -0.880722    32A     -0.860411    33A     -0.786669  
      34A     -0.757563    35A     -0.744074    36A     -0.734385  
      37A     -0.692250    38A     -0.672127    39A     -0.668198  
      40A     -0.656925    41A     -0.634409    42A     -0.619482  
      43A     -0.582844    44A     -0.573048    45A     -0.562792  
      46A     -0.556500    47A     -0.551759    48A     -0.549727  
      49A     -0.545355    50A     -0.534987    51A     -0.529208  
      52A     -0.522644    53A     -0.519173    54A     -0.504888  
      55A     -0.498937    56A     -0.495367    57A     -0.487671  
      58A     -0.473540    59A     -0.467463    60A     -0.433815  
      61A     -0.420653    62A     -0.413432    63A     -0.390230  
      64A     -0.363981    65A     -0.360724    66A     -0.332180  
      67A     -0.326236  

    Virtual:                                                              

      68A     -0.042501    69A      0.013955    70A      0.027236  
      71A      0.035165    72A      0.036928    73A      0.044415  
      74A      0.050140    75A      0.053188    76A      0.060309  
      77A      0.065737    78A      0.068365    79A      0.073830  
      80A      0.079928    81A      0.081199    82A      0.094516  
      83A      0.097216    84A      0.104395    85A      0.108604  
      86A      0.109892    87A      0.117018    88A      0.118205  
      89A      0.122074    90A      0.123827    91A      0.130792  
      92A      0.133158    93A      0.133496    94A      0.139207  
      95A      0.146399    96A      0.147029    97A      0.152132  
      98A      0.155868    99A      0.158890   100A      0.165137  
     101A      0.168863   102A      0.170061   103A      0.175070  
     104A      0.176415   105A      0.181651   106A      0.182183  
     107A      0.184449   108A      0.190133   109A      0.198079  
     110A      0.201320   111A      0.204540   112A      0.205337  
     113A      0.214098   114A      0.216231   115A      0.219082  
     116A      0.225891   117A      0.230925   118A      0.234590  
     119A      0.237745   120A      0.240792   121A      0.244092  
     122A      0.247390   123A      0.253230   124A      0.258850  
     125A      0.261036   126A      0.267372   127A      0.268592  
     128A      0.273817   129A      0.277725   130A      0.278460  
     131A      0.281992   132A      0.284202   133A      0.286795  
     134A      0.290848   135A      0.292608   136A      0.296555  
     137A      0.300673   138A      0.306434   139A      0.311490  
     140A      0.313631   141A      0.319626   142A      0.321443  
     143A      0.325039   144A      0.333807   145A      0.336853  
     146A      0.344946   147A      0.346755   148A      0.350919  
     149A      0.353739   150A      0.358786   151A      0.364299  
     152A      0.368365   153A      0.371751   154A      0.375411  
     155A      0.379776   156A      0.382076   157A      0.385535  
     158A      0.389780   159A      0.391095   160A      0.396977  
     161A      0.401180   162A      0.409688   163A      0.412324  
     164A      0.415128   165A      0.420137   166A      0.423607  
     167A      0.429637   168A      0.435297   169A      0.436115  
     170A      0.443294   171A      0.449275   172A      0.452360  
     173A      0.463872   174A      0.467085   175A      0.470673  
     176A      0.475860   177A      0.485568   178A      0.489352  
     179A      0.496383   180A      0.497913   181A      0.502507  
     182A      0.507270   183A      0.515102   184A      0.516513  
     185A      0.519573   186A      0.523291   187A      0.534075  
     188A      0.540131   189A      0.542979   190A      0.544645  
     191A      0.546596   192A      0.553602   193A      0.564713  
     194A      0.570690   195A      0.571535   196A      0.579694  
     197A      0.582187   198A      0.587407   199A      0.594261  
     200A      0.597695   201A      0.601893   202A      0.614141  
     203A      0.619051   204A      0.623452   205A      0.629494  
     206A      0.631230   207A      0.634863   208A      0.637999  
     209A      0.646369   210A      0.647970   211A      0.652157  
     212A      0.655989   213A      0.661262   214A      0.670891  
     215A      0.674413   216A      0.678709   217A      0.680641  
     218A      0.683147   219A      0.688972   220A      0.693021  
     221A      0.702493   222A      0.704166   223A      0.707385  
     224A      0.713060   225A      0.717090   226A      0.728530  
     227A      0.733072   228A      0.737210   229A      0.743788  
     230A      0.752145   231A      0.763024   232A      0.767736  
     233A      0.771615   234A      0.787500   235A      0.789717  
     236A      0.793074   237A      0.800991   238A      0.806308  
     239A      0.813850   240A      0.817816   241A      0.822476  
     242A      0.830554   243A      0.835257   244A      0.840497  
     245A      0.846302   246A      0.854205   247A      0.860099  
     248A      0.864955   249A      0.874793   250A      0.885185  
     251A      0.886889   252A      0.897278   253A      0.899818  
     254A      0.908092   255A      0.923298   256A      0.932359  
     257A      0.937387   258A      0.944881   259A      0.955809  
     260A      0.961331   261A      0.962161   262A      0.977399  
     263A      0.982502   264A      0.986403   265A      0.998999  
     266A      1.010326   267A      1.017614   268A      1.032382  
     269A      1.036907   270A      1.046643   271A      1.065314  
     272A      1.071831   273A      1.079127   274A      1.089021  
     275A      1.096933   276A      1.104306   277A      1.110262  
     278A      1.118108   279A      1.133175   280A      1.142981  
     281A      1.147481   282A      1.152761   283A      1.153793  
     284A      1.167455   285A      1.179877   286A      1.188372  
     287A      1.196895   288A      1.206579   289A      1.218181  
     290A      1.221849   291A      1.238769   292A      1.259764  
     293A      1.264871   294A      1.272732   295A      1.282664  
     296A      1.292502   297A      1.297122   298A      1.301839  
     299A      1.313552   300A      1.315101   301A      1.323145  
     302A      1.338077   303A      1.348003   304A      1.358023  
     305A      1.366840   306A      1.378946   307A      1.388036  
     308A      1.399067   309A      1.403549   310A      1.419323  
     311A      1.427924   312A      1.435352   313A      1.449865  
     314A      1.456220   315A      1.457469   316A      1.469290  
     317A      1.479899   318A      1.500049   319A      1.506376  
     320A      1.511421   321A      1.516122   322A      1.520992  
     323A      1.530200   324A      1.553440   325A      1.563153  
     326A      1.568788   327A      1.569171   328A      1.573405  
     329A      1.580164   330A      1.591301   331A      1.611298  
     332A      1.614077   333A      1.616536   334A      1.626440  
     335A      1.630952   336A      1.637822   337A      1.645899  
     338A      1.657126   339A      1.660767   340A      1.678861  
     341A      1.687510   342A      1.696461   343A      1.703094  
     344A      1.703843   345A      1.713244   346A      1.726488  
     347A      1.740147   348A      1.747705   349A      1.754339  
     350A      1.760841   351A      1.781884   352A      1.786163  
     353A      1.795054   354A      1.807319   355A      1.817532  
     356A      1.833249   357A      1.840691   358A      1.850602  
     359A      1.862536   360A      1.870417   361A      1.880481  
     362A      1.881304   363A      1.888213   364A      1.896653  
     365A      1.902267   366A      1.915192   367A      1.923337  
     368A      1.941817   369A      1.953624   370A      1.958766  
     371A      1.963208   372A      1.969842   373A      1.974836  
     374A      1.988388   375A      2.003483   376A      2.007626  
     377A      2.022239   378A      2.028765   379A      2.036992  
     380A      2.052478   381A      2.056359   382A      2.067022  
     383A      2.078118   384A      2.089030   385A      2.096903  
     386A      2.105876   387A      2.111231   388A      2.133012  
     389A      2.140266   390A      2.157032   391A      2.168431  
     392A      2.182275   393A      2.202203   394A      2.210678  
     395A      2.221558   396A      2.227851   397A      2.230509  
     398A      2.247524   399A      2.265211   400A      2.284913  
     401A      2.301028   402A      2.305302   403A      2.321212  
     404A      2.326056   405A      2.339530   406A      2.347241  
     407A      2.353970   408A      2.361016   409A      2.369231  
     410A      2.386843   411A      2.401340   412A      2.410222  
     413A      2.434324   414A      2.455954   415A      2.467587  
     416A      2.509845   417A      2.523510   418A      2.540994  
     419A      2.547120   420A      2.588222   421A      2.603392  
     422A      2.613084   423A      2.656176   424A      2.670695  
     425A      2.680602   426A      2.693767   427A      2.708439  
     428A      2.709450   429A      2.723377   430A      2.746864  
     431A      2.762443   432A      2.798199   433A      2.858563  
     434A      2.864400   435A      2.955412   436A      2.970995  
     437A      3.006646   438A      3.036840   439A      3.056869  
     440A      3.133942   441A      3.188033   442A      3.249274  
     443A      3.390899   444A      3.407268   445A      3.420037  
     446A      3.456518   447A      3.473041   448A      3.486158  
     449A      3.516506   450A      3.536637   451A      3.541506  
     452A      3.546050   453A      3.576973   454A      3.593250  
     455A      3.628889   456A      3.641427   457A      3.650499  
     458A      3.728459   459A      3.764833   460A      3.789055  
     461A      3.881983   462A      3.916816   463A      3.929394  
     464A      4.029332   465A      4.199827   466A      4.524583  
     467A      4.636287   468A      4.697824   469A      4.726572  
     470A      4.728818   471A      4.758615   472A      4.783186  
     473A      4.799215   474A      4.830038   475A      4.902249  
     476A      4.952468  

    Final Occupation by Irrep:
              A 
    DOCC [    67 ]

  @DF-RKS Final Energy: -1264.63012080151270

   => Energetics <=

    Nuclear Repulsion Energy =           1360.5250171599370788
    One-Electron Energy =               -4440.6810722659856765
    Two-Electron Energy =                1911.5858181450616939
    DFT Exchange-Correlation Energy =     -96.0428711808706339
    Empirical Dispersion Energy =          -0.0170126596554986
    VV10 Nonlocal Energy =                  0.0000000000000000
    Total Energy =                      -1264.6301208015127031

Computation Completed


Properties will be evaluated at   0.000000,   0.000000,   0.000000 [a0]

Properties computed using the SCF density matrix

  Nuclear Dipole Moment: [e a0]
     X:    19.7812      Y:    -0.9574      Z:    -7.0767

  Electronic Dipole Moment: [e a0]
     X:   -17.9512      Y:     0.9575      Z:     6.4051

  Dipole Moment: [e a0]
     X:     1.8300      Y:     0.0001      Z:    -0.6716     Total:     1.9494

  Dipole Moment: [D]
     X:     4.6514      Y:     0.0003      Z:    -1.7071     Total:     4.9548


*** tstop() called on cpu-spot-dy-c5n2xlarge-1 at Tue Jun 22 16:41:03 2021
Module time:
	user time   =     928.81 seconds =      15.48 minutes
	system time =       9.28 seconds =       0.15 minutes
	total time  =        126 seconds =       2.10 minutes
Total time:
	user time   =    3126.70 seconds =      52.11 minutes
	system time =      33.19 seconds =       0.55 minutes
	total time  =        425 seconds =       7.08 minutes

       N-Body: Complex Energy (fragments = (1, 2), basis = (1, 2): -1264.63012080151270)

   ==> N-Body: Counterpoise Corrected (CP) energies <==

   n-Body     Total Energy [Eh]       I.E. [kcal/mol]      Delta [kcal/mol]
        1    -1264.624793113403        0.000000000000        0.000000000000
        2    -1264.628361235630       -2.239030500803       -2.239030500803

   => Loading Basis Set <=

    Name: DEF2-SVP
    Role: ORBITAL
    Keyword: BASIS
    atoms 1             entry N          line   110 file /fsx/users/francis/anaconda3/envs/poltype-dev/share/psi4/basis/def2-svp.gbs 
    atoms 2-3, 6-12, 14 entry C          line    90 file /fsx/users/francis/anaconda3/envs/poltype-dev/share/psi4/basis/def2-svp.gbs 
    atoms 4-5           entry F          line   150 file /fsx/users/francis/anaconda3/envs/poltype-dev/share/psi4/basis/def2-svp.gbs 
    atoms 13            entry S          line   328 file /fsx/users/francis/anaconda3/envs/poltype-dev/share/psi4/basis/def2-svp.gbs 
    atoms 15-16, 24     entry O          line   130 file /fsx/users/francis/anaconda3/envs/poltype-dev/share/psi4/basis/def2-svp.gbs 
    atoms 17-23, 25-26  entry H          line    15 file /fsx/users/francis/anaconda3/envs/poltype-dev/share/psi4/basis/def2-svp.gbs 

CP Energy =  -0.003568
    Psi4 stopped on: Tuesday, 22 June 2021 04:41PM
    Psi4 wall time for execution: 0:07:05.42

*** Psi4 exiting successfully. Buy a developer a beer!
