
    -----------------------------------------------------------------------
          Psi4: An Open-Source Ab Initio Electronic Structure Package
                               Psi4 1.3.2 release

                         Git: Rev {HEAD} ecbda83 


    R. M. Parrish, L. A. Burns, D. G. A. Smith, A. C. Simmonett,
    A. E. DePrince III, E. G. Hohenstein, U. Bozkaya, A. Yu. Sokolov,
    R. Di Remigio, R. M. Richard, J. F. Gonthier, A. M. James,
    H. R. McAlexander, A. Kumar, M. Saitow, X. Wang, B. P. Pritchard,
    P. Verma, H. F. Schaefer III, K. Patkowski, R. A. King, E. F. Valeev,
    F. A. Evangelista, J. M. Turney, T. D. Crawford, and C. D. Sherrill,
    J. Chem. Theory Comput. 13(7) pp 3185--3197 (2017).
    (doi: 10.1021/acs.jctc.7b00174)


                         Additional Contributions by
    P. Kraus, H. Kruse, M. H. Lechner, M. C. Schieber, R. A. Shaw,
    A. Alenaizan, R. Galvelis, Z. L. Glick, S. Lehtola, and J. P. Misiewicz

    -----------------------------------------------------------------------


    Psi4 started on: Tuesday, 22 June 2021 08:11PM

    Process ID: 31896
    Host:       cpu-spot-dy-c5n2xlarge-1
    PSIDATADIR: /fsx/users/francis/anaconda3/envs/poltype-dev/share/psi4
    Memory:     500.0 MiB
    Threads:    1
    
  ==> Input File <==

--------------------------------------------------------------------------
molecule { 
0 1
  N                 -0.7735580    -1.3877650     0.3762830
  C                 -2.0506670    -1.1155840     0.7908700
  C                 -2.5043840     0.3774880     0.6774080
  F                 -3.5962270     0.4156400    -0.1601540
  F                 -2.9061990     0.7850010     1.9298970
  C                 -1.4528850     1.4123530     0.1460210
  C                 -0.1227770     0.8977000    -0.2526910
  C                  0.8620890     1.7845470    -0.7401720
  C                  2.1113680     1.3117470    -1.1603950
  C                  2.4259530    -0.0670330    -1.0508120
  C                  1.4556270    -0.9494480    -0.5289330
  C                  0.1886820    -0.4855360    -0.1346250
  S                  3.9638070    -0.7835970    -1.5571510
  C                  5.1473010    -0.1867290    -0.3239010
  O                 -2.7686020    -2.0098140     1.2138050
  O                 -1.7369170     2.6034530     0.0621640
  H                  2.8251380     2.0222360    -1.5760210
  H                  0.6132780     2.8438570    -0.8113500
  H                 -0.5385400    -2.3658440     0.4783350
  H                  1.6887170    -2.0114780    -0.4410070
  H                  5.2957800     0.8895290    -0.4541750
  H                  4.7632760    -0.3852570     0.6822070
  H                  6.0990420    -0.7082150    -0.4615910
--
0 1
  O                  2.8394786     0.2489958     1.7328326
  H                  2.4250506     0.4445558     0.8907896
  H                  2.7700746     1.0255588     2.2885246
}
memory 16GB
set_num_threads(8)
psi4_io.set_default_path("/scratch/Psi4-ligand")
set maxiter 500
set freeze_core True
set PROPERTIES_ORIGIN ["COM"]
e_dim= energy('wb97x-d/aug-cc-pVDZ',bsse_type='cp')

psi4.print_out('CP Energy = %10.6f' % (e_dim))
clean()
--------------------------------------------------------------------------

  Memory set to  14.901 GiB by Python driver.
  Threads set to 8 by Python driver.


   ===> N-Body Interaction Abacus <===
        BSSE Treatment:                     cp
        Number of 1-body computations:     4
        Number of 2-body computations:     1

   ==> N-Body: Now computing 1-body complexes <==


       N-Body: Computing complex (1/4) with fragments (2,) in the basis of fragments (2,).


*** tstart() called on cpu-spot-dy-c5n2xlarge-1
*** at Tue Jun 22 20:11:09 2021

   => Loading Basis Set <=

    Name: AUG-CC-PVDZ
    Role: ORBITAL
    Keyword: BASIS
    atoms 1   entry O          line   250 file /fsx/users/francis/anaconda3/envs/poltype-dev/share/psi4/basis/aug-cc-pvdz.gbs 
    atoms 2-3 entry H          line    36 file /fsx/users/francis/anaconda3/envs/poltype-dev/share/psi4/basis/aug-cc-pvdz.gbs 


         ---------------------------------------------------------
                                   SCF
               by Justin Turney, Rob Parrish, Andy Simmonett
                          and Daniel G. A. Smith
                              RKS Reference
                        8 Threads,  15258 MiB Core
         ---------------------------------------------------------

  ==> Geometry <==

    Molecular point group: c1
    Full point group: C1

    Geometry (in Angstrom), charge = 0, multiplicity = 1:

       Center              X                  Y                   Z               Mass       
    ------------   -----------------  -----------------  -----------------  -----------------
         O            2.592057793470     0.136652402845     1.706378622912    15.994914619570
         H            2.177629793470     0.332212402845     0.864335622912     1.007825032230
         H            2.522653793470     0.913215402845     2.262070622912     1.007825032230

  Running in c1 symmetry.

  Rotational constants: A =     15.82498  B =      0.09824  C =      0.09794 [cm^-1]
  Rotational constants: A = 474421.02367  B =   2945.28970  C =   2936.03427 [MHz]
  Nuclear repulsion =    9.178499121640559

  Charge       = 0
  Multiplicity = 1
  Electrons    = 10
  Nalpha       = 5
  Nbeta        = 5

  ==> Algorithm <==

  SCF Algorithm Type is DF.
  DIIS enabled.
  MOM disabled.
  Fractional occupation disabled.
  Guess Type is SAD.
  Energy threshold   = 1.00e-06
  Density threshold  = 1.00e-06
  Integral threshold = 0.00e+00

  ==> Primary Basis <==

  Basis Set: AUG-CC-PVDZ
    Blend: AUG-CC-PVDZ
    Number of shells: 19
    Number of basis function: 41
    Number of Cartesian functions: 43
    Spherical Harmonics?: true
    Max angular momentum: 2

  ==> DFT Potential <==

   => Composite Functional: WB97X-D <= 

    wB97X-D Hyb-GGA Exchange-Correlation Functional

    J.-D. Chai and M. Head-Gordon, Phys. Chem. Chem. Phys. 10, 6615 (2008)

    Deriv               =              1
    GGA                 =           TRUE
    Meta                =          FALSE

    Exchange Hybrid     =           TRUE
    MP2 Hybrid          =          FALSE

   => Exchange-Correlation Functionals <=

    1.0000   wB97D range-separated functional

   => Exact (HF) Exchange <=

    0.7780            HF,LR [omega = 0.2000]
    0.2220               HF 

   => Molecular Quadrature <=

    Radial Scheme          =       TREUTLER
    Pruning Scheme         =           FLAT
    Nuclear Scheme         =       TREUTLER

    BS radius alpha        =              1
    Pruning alpha          =              1
    Radial Points          =             75
    Spherical Points       =            302
    Total Points           =          67950
    Total Blocks           =            556
    Max Points             =            256
    Max Functions          =             41

   => WB97X-D: Empirical Dispersion <=

    Chai and Head-Gordon Dispersion Correction
    Chai, J.-D.; Head-Gordon, M. (2010), J. Chem. Phys., 132: 6615-6620

        s6 =       1.000000

   => Loading Basis Set <=

    Name: (AUG-CC-PVDZ AUX)
    Role: JKFIT
    Keyword: DF_BASIS_SCF
    atoms 1   entry O          line   270 file /fsx/users/francis/anaconda3/envs/poltype-dev/share/psi4/basis/aug-cc-pvdz-jkfit.gbs 
    atoms 2-3 entry H          line    70 file /fsx/users/francis/anaconda3/envs/poltype-dev/share/psi4/basis/aug-cc-pvdz-jkfit.gbs 

  ==> Pre-Iterations <==

   -------------------------------------------------------
    Irrep   Nso     Nmo     Nalpha   Nbeta   Ndocc  Nsocc
   -------------------------------------------------------
     A         41      41       0       0       0       0
   -------------------------------------------------------
    Total      41      41       5       5       5       0
   -------------------------------------------------------

  ==> Integral Setup <==

  ==> DiskDFJK: Density-Fitted J/K Matrices <==

    J tasked:                  Yes
    K tasked:                  Yes
    wK tasked:                 Yes
    Omega:               2.000E-01
    OpenMP threads:              8
    Integrals threads:           8
    Memory [MiB]:            11363
    Algorithm:                Core
    Integral Cache:           NONE
    Schwarz Cutoff:          1E-12
    Fitting Condition:       1E-10

   => Auxiliary Basis Set <=

  Basis Set: (AUG-CC-PVDZ AUX)
    Blend: AUG-CC-PVDZ-JKFIT
    Number of shells: 52
    Number of basis function: 150
    Number of Cartesian functions: 171
    Spherical Harmonics?: true
    Max angular momentum: 3

  Cached 100.0% of DFT collocation blocks in 0.079 [GiB].

  Minimum eigenvalue in the overlap matrix is 2.8163119931E-03.
  Using Symmetric Orthogonalization.

  SCF Guess: Superposition of Atomic Densities via on-the-fly atomic UHF.

  ==> Iterations <==

                           Total Energy        Delta E     RMS |[F,P]|

   @DF-RKS iter SAD:   -75.95396507950150   -7.59540e+01   0.00000e+00 
   @DF-RKS iter   1:   -76.27470246542663   -3.20737e-01   1.51125e-02 DIIS
   @DF-RKS iter   2:   -76.22855311778432    4.61493e-02   1.77795e-02 DIIS
   @DF-RKS iter   3:   -76.41931532771318   -1.90762e-01   3.63862e-04 DIIS
   @DF-RKS iter   4:   -76.41946042289018   -1.45095e-04   9.78085e-05 DIIS
   @DF-RKS iter   5:   -76.41946824888811   -7.82600e-06   1.85726e-05 DIIS
   @DF-RKS iter   6:   -76.41946857261919   -3.23731e-07   2.02962e-06 DIIS
   @DF-RKS iter   7:   -76.41946858332446   -1.07053e-08   2.56040e-07 DIIS
  Energy and wave function converged.


  ==> Post-Iterations <==

    Orbital Energies [Eh]
    ---------------------

    Doubly Occupied:                                                      

       1A    -19.277993     2A     -1.119963     3A     -0.633114  
       4A     -0.478103     5A     -0.406792  

    Virtual:                                                              

       6A      0.034101     7A      0.060933     8A      0.162266  
       9A      0.190700    10A      0.199511    11A      0.217702  
      12A      0.256271    13A      0.301431    14A      0.361941  
      15A      0.379006    16A      0.408765    17A      0.518041  
      18A      0.580561    19A      0.603918    20A      0.718017  
      21A      0.809032    22A      0.979956    23A      0.991363  
      24A      1.034687    25A      1.176903    26A      1.289963  
      27A      1.316288    28A      1.397527    29A      1.818297  
      30A      1.852308    31A      1.920078    32A      2.229789  
      33A      2.236242    34A      2.378957    35A      2.498726  
      36A      2.708591    37A      3.372391    38A      3.384379  
      39A      3.402932    40A      3.741645    41A      3.970563  

    Final Occupation by Irrep:
              A 
    DOCC [     5 ]

  @DF-RKS Final Energy:   -76.41946858332446

   => Energetics <=

    Nuclear Repulsion Energy =              9.1784991216405594
    One-Electron Energy =                -122.9692391816774233
    Two-Electron Energy =                  43.8449177685865479
    DFT Exchange-Correlation Energy =      -6.4736153850688716
    Empirical Dispersion Energy =          -0.0000309068052664
    VV10 Nonlocal Energy =                  0.0000000000000000
    Total Energy =                        -76.4194685833244591

Computation Completed


Properties will be evaluated at   4.847117,   0.361032,   3.194308 [a0]

Properties computed using the SCF density matrix

  Nuclear Dipole Moment: [e a0]
     X:    -0.4027      Y:     0.8091      Z:    -0.2383

  Electronic Dipole Moment: [e a0]
     X:     0.0924      Y:    -0.1855      Z:     0.0549

  Dipole Moment: [e a0]
     X:    -0.3103      Y:     0.6236      Z:    -0.1835     Total:     0.7203

  Dipole Moment: [D]
     X:    -0.7886      Y:     1.5850      Z:    -0.4663     Total:     1.8308


*** tstop() called on cpu-spot-dy-c5n2xlarge-1 at Tue Jun 22 20:11:10 2021
Module time:
	user time   =       8.26 seconds =       0.14 minutes
	system time =       0.24 seconds =       0.00 minutes
	total time  =          1 seconds =       0.02 minutes
Total time:
	user time   =       8.26 seconds =       0.14 minutes
	system time =       0.24 seconds =       0.00 minutes
	total time  =          1 seconds =       0.02 minutes

       N-Body: Complex Energy (fragments = (2,), basis = (2,):   -76.41946858332446)

       N-Body: Computing complex (2/4) with fragments (2,) in the basis of fragments (1, 2).


*** tstart() called on cpu-spot-dy-c5n2xlarge-1
*** at Tue Jun 22 20:11:10 2021

   => Loading Basis Set <=

    Name: AUG-CC-PVDZ
    Role: ORBITAL
    Keyword: BASIS
    atoms 1             entry N          line   214 file /fsx/users/francis/anaconda3/envs/poltype-dev/share/psi4/basis/aug-cc-pvdz.gbs 
    atoms 2-3, 6-12, 14 entry C          line   178 file /fsx/users/francis/anaconda3/envs/poltype-dev/share/psi4/basis/aug-cc-pvdz.gbs 
    atoms 4-5           entry F          line   286 file /fsx/users/francis/anaconda3/envs/poltype-dev/share/psi4/basis/aug-cc-pvdz.gbs 
    atoms 13            entry S          line   698 file /fsx/users/francis/anaconda3/envs/poltype-dev/share/psi4/basis/aug-cc-pvdz.gbs 
    atoms 15-16, 24     entry O          line   250 file /fsx/users/francis/anaconda3/envs/poltype-dev/share/psi4/basis/aug-cc-pvdz.gbs 
    atoms 17-23, 25-26  entry H          line    36 file /fsx/users/francis/anaconda3/envs/poltype-dev/share/psi4/basis/aug-cc-pvdz.gbs 


         ---------------------------------------------------------
                                   SCF
               by Justin Turney, Rob Parrish, Andy Simmonett
                          and Daniel G. A. Smith
                              RKS Reference
                        8 Threads,  15258 MiB Core
         ---------------------------------------------------------

  ==> Geometry <==

    Molecular point group: c1
    Full point group: C1

    Geometry (in Angstrom), charge = 0, multiplicity = 1:

       Center              X                  Y                   Z               Mass       
    ------------   -----------------  -----------------  -----------------  -----------------
      Gh(N)          -1.020978806530    -1.500108397155     0.349829022912    14.003074004430
      Gh(C)          -2.298087806530    -1.227927397155     0.764416022912    12.000000000000
      Gh(C)          -2.751804806530     0.265144602845     0.650954022912    12.000000000000
      Gh(F)          -3.843647806530     0.303296602845    -0.186607977088    18.998403162730
      Gh(F)          -3.153619806530     0.672657602845     1.903443022912    18.998403162730
      Gh(C)          -1.700305806530     1.300009602845     0.119567022912    12.000000000000
      Gh(C)          -0.370197806530     0.785356602845    -0.279144977088    12.000000000000
      Gh(C)           0.614668193470     1.672203602845    -0.766625977088    12.000000000000
      Gh(C)           1.863947193470     1.199403602845    -1.186848977088    12.000000000000
      Gh(C)           2.178532193470    -0.179376397155    -1.077265977088    12.000000000000
      Gh(C)           1.208206193470    -1.061791397155    -0.555386977088    12.000000000000
      Gh(C)          -0.058738806530    -0.597879397155    -0.161078977088    12.000000000000
      Gh(S)           3.716386193470    -0.895940397155    -1.583604977088    31.972071174400
      Gh(C)           4.899880193470    -0.299072397155    -0.350354977088    12.000000000000
      Gh(O)          -3.016022806530    -2.122157397155     1.187351022912    15.994914619570
      Gh(O)          -1.984337806530     2.491109602845     0.035710022912    15.994914619570
      Gh(H)           2.577717193470     1.909892602845    -1.602474977088     1.007825032230
      Gh(H)           0.365857193470     2.731513602845    -0.837803977088     1.007825032230
      Gh(H)          -0.785960806530    -2.478187397155     0.451881022912     1.007825032230
      Gh(H)           1.441296193470    -2.123821397155    -0.467460977088     1.007825032230
      Gh(H)           5.048359193470     0.777185602845    -0.480628977088     1.007825032230
      Gh(H)           4.515855193470    -0.497600397155     0.655753022912     1.007825032230
      Gh(H)           5.851621193470    -0.820558397155    -0.488044977088     1.007825032230
         O            2.592057793470     0.136652402845     1.706378622912    15.994914619570
         H            2.177629793470     0.332212402845     0.864335622912     1.007825032230
         H            2.522653793470     0.913215402845     2.262070622912     1.007825032230

  Running in c1 symmetry.

  Rotational constants: A =      0.02997  B =      0.00755  C =      0.00695 [cm^-1]
  Rotational constants: A =    898.37138  B =    226.47547  C =    208.22917 [MHz]
  Nuclear repulsion =    9.178499121640559

  Charge       = 0
  Multiplicity = 1
  Electrons    = 10
  Nalpha       = 5
  Nbeta        = 5

  ==> Algorithm <==

  SCF Algorithm Type is DF.
  DIIS enabled.
  MOM disabled.
  Fractional occupation disabled.
  Guess Type is SAD.
  Energy threshold   = 1.00e-06
  Density threshold  = 1.00e-06
  Integral threshold = 0.00e+00

  ==> Primary Basis <==

  Basis Set: AUG-CC-PVDZ
    Blend: AUG-CC-PVDZ
    Number of shells: 200
    Number of basis function: 476
    Number of Cartesian functions: 510
    Spherical Harmonics?: true
    Max angular momentum: 2

  ==> DFT Potential <==

   => Composite Functional: WB97X-D <= 

    wB97X-D Hyb-GGA Exchange-Correlation Functional

    J.-D. Chai and M. Head-Gordon, Phys. Chem. Chem. Phys. 10, 6615 (2008)

    Deriv               =              1
    GGA                 =           TRUE
    Meta                =          FALSE

    Exchange Hybrid     =           TRUE
    MP2 Hybrid          =          FALSE

   => Exchange-Correlation Functionals <=

    1.0000   wB97D range-separated functional

   => Exact (HF) Exchange <=

    0.7780            HF,LR [omega = 0.2000]
    0.2220               HF 

   => Molecular Quadrature <=

    Radial Scheme          =       TREUTLER
    Pruning Scheme         =           FLAT
    Nuclear Scheme         =       TREUTLER

    BS radius alpha        =              1
    Pruning alpha          =              1
    Radial Points          =             75
    Spherical Points       =            302
    Total Points           =         588900
    Total Blocks           =           4374
    Max Points             =            256
    Max Functions          =            425

   => WB97X-D: Empirical Dispersion <=

    Chai and Head-Gordon Dispersion Correction
    Chai, J.-D.; Head-Gordon, M. (2010), J. Chem. Phys., 132: 6615-6620

        s6 =       1.000000

   => Loading Basis Set <=

    Name: (AUG-CC-PVDZ AUX)
    Role: JKFIT
    Keyword: DF_BASIS_SCF
    atoms 1             entry N          line   212 file /fsx/users/francis/anaconda3/envs/poltype-dev/share/psi4/basis/aug-cc-pvdz-jkfit.gbs 
    atoms 2-3, 6-12, 14 entry C          line   154 file /fsx/users/francis/anaconda3/envs/poltype-dev/share/psi4/basis/aug-cc-pvdz-jkfit.gbs 
    atoms 4-5           entry F          line   328 file /fsx/users/francis/anaconda3/envs/poltype-dev/share/psi4/basis/aug-cc-pvdz-jkfit.gbs 
    atoms 13            entry S          line   690 file /fsx/users/francis/anaconda3/envs/poltype-dev/share/psi4/basis/aug-cc-pvdz-jkfit.gbs 
    atoms 15-16, 24     entry O          line   270 file /fsx/users/francis/anaconda3/envs/poltype-dev/share/psi4/basis/aug-cc-pvdz-jkfit.gbs 
    atoms 17-23, 25-26  entry H          line    70 file /fsx/users/francis/anaconda3/envs/poltype-dev/share/psi4/basis/aug-cc-pvdz-jkfit.gbs 

  ==> Pre-Iterations <==

   -------------------------------------------------------
    Irrep   Nso     Nmo     Nalpha   Nbeta   Ndocc  Nsocc
   -------------------------------------------------------
     A        476     476       0       0       0       0
   -------------------------------------------------------
    Total     476     476       5       5       5       0
   -------------------------------------------------------

  ==> Integral Setup <==

  ==> DiskDFJK: Density-Fitted J/K Matrices <==

    J tasked:                  Yes
    K tasked:                  Yes
    wK tasked:                 Yes
    Omega:               2.000E-01
    OpenMP threads:              8
    Integrals threads:           8
    Memory [MiB]:             5753
    Algorithm:                Core
    Integral Cache:           NONE
    Schwarz Cutoff:          1E-12
    Fitting Condition:       1E-10

   => Auxiliary Basis Set <=

  Basis Set: (AUG-CC-PVDZ AUX)
    Blend: AUG-CC-PVDZ-JKFIT
    Number of shells: 596
    Number of basis function: 1792
    Number of Cartesian functions: 2081
    Spherical Harmonics?: true
    Max angular momentum: 3

  Cached 100.0% of DFT collocation blocks in 5.557 [GiB].

  Minimum eigenvalue in the overlap matrix is 1.2220930757E-06.
  Using Symmetric Orthogonalization.

  SCF Guess: Superposition of Atomic Densities via on-the-fly atomic UHF.

  ==> Iterations <==

                           Total Energy        Delta E     RMS |[F,P]|

   @DF-RKS iter SAD:   -75.95397607308269   -7.59540e+01   0.00000e+00 
   @DF-RKS iter   1:   -76.27547673141660   -3.21501e-01   1.30747e-03 DIIS
   @DF-RKS iter   2:   -76.22919159454587    4.62851e-02   1.53766e-03 DIIS
   @DF-RKS iter   3:   -76.42009108157819   -1.90899e-01   3.22663e-05 DIIS
   @DF-RKS iter   4:   -76.42024716153193   -1.56080e-04   9.02069e-06 DIIS
   @DF-RKS iter   5:   -76.42025599172102   -8.83019e-06   1.65042e-06 DIIS
   @DF-RKS iter   6:   -76.42025634069070   -3.48970e-07   1.90637e-07 DIIS
  Energy and wave function converged.


  ==> Post-Iterations <==

    Orbital Energies [Eh]
    ---------------------

    Doubly Occupied:                                                      

       1A    -19.277661     2A     -1.119704     3A     -0.632791  
       4A     -0.477740     5A     -0.406341  

    Virtual:                                                              

       6A      0.016809     7A      0.034327     8A      0.036431  
       9A      0.043811    10A      0.051339    11A      0.055715  
      12A      0.064003    13A      0.070512    14A      0.075115  
      15A      0.077357    16A      0.082558    17A      0.087630  
      18A      0.094646    19A      0.099910    20A      0.103490  
      21A      0.105608    22A      0.106878    23A      0.121337  
      24A      0.122292    25A      0.127732    26A      0.132862  
      27A      0.136287    28A      0.139118    29A      0.145473  
      30A      0.147761    31A      0.150516    32A      0.154012  
      33A      0.157846    34A      0.163230    35A      0.165931  
      36A      0.173520    37A      0.177573    38A      0.187634  
      39A      0.188350    40A      0.192287    41A      0.194102  
      42A      0.196261    43A      0.204152    44A      0.208953  
      45A      0.212529    46A      0.215313    47A      0.218430  
      48A      0.223549    49A      0.226485    50A      0.229871  
      51A      0.235904    52A      0.240208    53A      0.245717  
      54A      0.249968    55A      0.255262    56A      0.260875  
      57A      0.265508    58A      0.270305    59A      0.273442  
      60A      0.280663    61A      0.284268    62A      0.288482  
      63A      0.292451    64A      0.303007    65A      0.305755  
      66A      0.310382    67A      0.317638    68A      0.322503  
      69A      0.322663    70A      0.326949    71A      0.331990  
      72A      0.334434    73A      0.340754    74A      0.342486  
      75A      0.352226    76A      0.356602    77A      0.360932  
      78A      0.363190    79A      0.376624    80A      0.378488  
      81A      0.388074    82A      0.390845    83A      0.398490  
      84A      0.402096    85A      0.406335    86A      0.414801  
      87A      0.416180    88A      0.424805    89A      0.429491  
      90A      0.434581    91A      0.442562    92A      0.448981  
      93A      0.452852    94A      0.461611    95A      0.463671  
      96A      0.470706    97A      0.480220    98A      0.481160  
      99A      0.484458   100A      0.489762   101A      0.496725  
     102A      0.506681   103A      0.508554   104A      0.512019  
     105A      0.517880   106A      0.520749   107A      0.528951  
     108A      0.535434   109A      0.537392   110A      0.545633  
     111A      0.552141   112A      0.560796   113A      0.562492  
     114A      0.567000   115A      0.577082   116A      0.584876  
     117A      0.587656   118A      0.597884   119A      0.602734  
     120A      0.612910   121A      0.617170   122A      0.620162  
     123A      0.624750   124A      0.630147   125A      0.638786  
     126A      0.643604   127A      0.647443   128A      0.657460  
     129A      0.662397   130A      0.669536   131A      0.672177  
     132A      0.678992   133A      0.685669   134A      0.695523  
     135A      0.704909   136A      0.711089   137A      0.717791  
     138A      0.725058   139A      0.727830   140A      0.732645  
     141A      0.738028   142A      0.742713   143A      0.745422  
     144A      0.753228   145A      0.757386   146A      0.774367  
     147A      0.783250   148A      0.789308   149A      0.791783  
     150A      0.798070   151A      0.808841   152A      0.813941  
     153A      0.822137   154A      0.825151   155A      0.825909  
     156A      0.834178   157A      0.841872   158A      0.847063  
     159A      0.859034   160A      0.864335   161A      0.877303  
     162A      0.881841   163A      0.885720   164A      0.899154  
     165A      0.901692   166A      0.908122   167A      0.908897  
     168A      0.915329   169A      0.921167   170A      0.924582  
     171A      0.929911   172A      0.939464   173A      0.948792  
     174A      0.959750   175A      0.961565   176A      0.967499  
     177A      0.975009   178A      0.980825   179A      0.986271  
     180A      0.994346   181A      1.007613   182A      1.010916  
     183A      1.018862   184A      1.024817   185A      1.027971  
     186A      1.040030   187A      1.045716   188A      1.063931  
     189A      1.068771   190A      1.078003   191A      1.083710  
     192A      1.086465   193A      1.111095   194A      1.112567  
     195A      1.126948   196A      1.139198   197A      1.145952  
     198A      1.155056   199A      1.166322   200A      1.173174  
     201A      1.179239   202A      1.185674   203A      1.190886  
     204A      1.198690   205A      1.203134   206A      1.212440  
     207A      1.220056   208A      1.227624   209A      1.247624  
     210A      1.252900   211A      1.260166   212A      1.274482  
     213A      1.287148   214A      1.291391   215A      1.301892  
     216A      1.316791   217A      1.320650   218A      1.326462  
     219A      1.329675   220A      1.333869   221A      1.346545  
     222A      1.361140   223A      1.370267   224A      1.375124  
     225A      1.382862   226A      1.420388   227A      1.433822  
     228A      1.442404   229A      1.448839   230A      1.454061  
     231A      1.466100   232A      1.475158   233A      1.482398  
     234A      1.495067   235A      1.503948   236A      1.512209  
     237A      1.533824   238A      1.545515   239A      1.565345  
     240A      1.573569   241A      1.585364   242A      1.590319  
     243A      1.613658   244A      1.632276   245A      1.639481  
     246A      1.643887   247A      1.660373   248A      1.677266  
     249A      1.705866   250A      1.708121   251A      1.731098  
     252A      1.744163   253A      1.756142   254A      1.765158  
     255A      1.784928   256A      1.792362   257A      1.823679  
     258A      1.843573   259A      1.858698   260A      1.881021  
     261A      1.892286   262A      1.922483   263A      1.938762  
     264A      1.947774   265A      1.950222   266A      1.959306  
     267A      1.981641   268A      2.004021   269A      2.016428  
     270A      2.053615   271A      2.059174   272A      2.065963  
     273A      2.073942   274A      2.092268   275A      2.106387  
     276A      2.126984   277A      2.140079   278A      2.148197  
     279A      2.175387   280A      2.184919   281A      2.194350  
     282A      2.206411   283A      2.216382   284A      2.221318  
     285A      2.226602   286A      2.234141   287A      2.237422  
     288A      2.250778   289A      2.268104   290A      2.279306  
     291A      2.289876   292A      2.298343   293A      2.312574  
     294A      2.323180   295A      2.330007   296A      2.340082  
     297A      2.344989   298A      2.350362   299A      2.366686  
     300A      2.376178   301A      2.378707   302A      2.396290  
     303A      2.399297   304A      2.412235   305A      2.428722  
     306A      2.446538   307A      2.466297   308A      2.484139  
     309A      2.498052   310A      2.510026   311A      2.520308  
     312A      2.531950   313A      2.549777   314A      2.560382  
     315A      2.571791   316A      2.584988   317A      2.612492  
     318A      2.628164   319A      2.635804   320A      2.637662  
     321A      2.645309   322A      2.666222   323A      2.671782  
     324A      2.676322   325A      2.692372   326A      2.706677  
     327A      2.740580   328A      2.745360   329A      2.779495  
     330A      2.789383   331A      2.803125   332A      2.818597  
     333A      2.824127   334A      2.831304   335A      2.845751  
     336A      2.851473   337A      2.890778   338A      2.892594  
     339A      2.914965   340A      2.929154   341A      2.936772  
     342A      2.962627   343A      2.980873   344A      2.987021  
     345A      3.026828   346A      3.037494   347A      3.042483  
     348A      3.066962   349A      3.080399   350A      3.102651  
     351A      3.113078   352A      3.144623   353A      3.153090  
     354A      3.177080   355A      3.218203   356A      3.221710  
     357A      3.268500   358A      3.269605   359A      3.293556  
     360A      3.298342   361A      3.321460   362A      3.353315  
     363A      3.357812   364A      3.400230   365A      3.445703  
     366A      3.480660   367A      3.491489   368A      3.510841  
     369A      3.521379   370A      3.525590   371A      3.544858  
     372A      3.592696   373A      3.606988   374A      3.615666  
     375A      3.655075   376A      3.684400   377A      3.704369  
     378A      3.718309   379A      3.745147   380A      3.776940  
     381A      3.830951   382A      3.869779   383A      3.875819  
     384A      3.905170   385A      3.910274   386A      3.968501  
     387A      4.004225   388A      4.009775   389A      4.046289  
     390A      4.078665   391A      4.130423   392A      4.161281  
     393A      4.236695   394A      4.258379   395A      4.306545  
     396A      4.347230   397A      4.409149   398A      4.434821  
     399A      4.480558   400A      4.529571   401A      4.554663  
     402A      4.571357   403A      4.622982   404A      4.656947  
     405A      4.703937   406A      4.825030   407A      4.867120  
     408A      4.890805   409A      4.954931   410A      4.999684  
     411A      5.017436   412A      5.028169   413A      5.045293  
     414A      5.052589   415A      5.065412   416A      5.089267  
     417A      5.094387   418A      5.115917   419A      5.138558  
     420A      5.212683   421A      5.254581   422A      5.320203  
     423A      5.382301   424A      5.384387   425A      5.393252  
     426A      5.428750   427A      5.527198   428A      5.602401  
     429A      5.634341   430A      5.891867   431A      5.971801  
     432A      6.039987   433A      6.051809   434A      6.083422  
     435A      6.091511   436A      6.178068   437A      6.413844  
     438A      6.486357   439A      6.801115   440A      6.821803  
     441A      6.828135   442A      6.862107   443A      6.868797  
     444A      6.902547   445A      6.906744   446A      6.933874  
     447A      6.977940   448A      7.007364   449A      7.009608  
     450A      7.039838   451A      7.128732   452A      7.680798  
     453A      7.940387   454A      8.046213   455A      8.060491  
     456A      8.067340   457A      8.298376   458A     18.018987  
     459A     18.451414   460A     18.585946   461A     18.664619  
     462A     18.827524   463A     18.910927   464A     19.134777  
     465A     19.384789   466A     19.771136   467A     20.677555  
     468A     20.738465   469A     20.957899   470A     21.463449  
     471A     25.482280   472A     33.538288   473A     33.545073  
     474A     43.007627   475A     43.015281   476A    138.015530  

    Final Occupation by Irrep:
              A 
    DOCC [     5 ]

  @DF-RKS Final Energy:   -76.42025634069070

   => Energetics <=

    Nuclear Repulsion Energy =              9.1784991216405594
    One-Electron Energy =                -122.9737615021451944
    Two-Electron Energy =                  43.8492195131982498
    DFT Exchange-Correlation Energy =      -6.4741825665790360
    Empirical Dispersion Energy =          -0.0000309068052664
    VV10 Nonlocal Energy =                  0.0000000000000000
    Total Energy =                        -76.4202563406906847

Computation Completed


Properties will be evaluated at  -0.000000,  -0.000000,  -0.000000 [a0]

Properties computed using the SCF density matrix

  Nuclear Dipole Moment: [e a0]
     X:    48.0685      Y:     4.4194      Z:    31.7048

  Electronic Dipole Moment: [e a0]
     X:   -48.3788      Y:    -3.7984      Z:   -31.8904

  Dipole Moment: [e a0]
     X:    -0.3104      Y:     0.6210      Z:    -0.1856     Total:     0.7186

  Dipole Moment: [D]
     X:    -0.7889      Y:     1.5785      Z:    -0.4718     Total:     1.8266


*** tstop() called on cpu-spot-dy-c5n2xlarge-1 at Tue Jun 22 20:12:32 2021
Module time:
	user time   =     598.13 seconds =       9.97 minutes
	system time =       6.78 seconds =       0.11 minutes
	total time  =         82 seconds =       1.37 minutes
Total time:
	user time   =     606.45 seconds =      10.11 minutes
	system time =       7.02 seconds =       0.12 minutes
	total time  =         83 seconds =       1.38 minutes

       N-Body: Complex Energy (fragments = (2,), basis = (1, 2):   -76.42025634069070)

       N-Body: Computing complex (3/4) with fragments (1,) in the basis of fragments (1, 2).


*** tstart() called on cpu-spot-dy-c5n2xlarge-1
*** at Tue Jun 22 20:12:32 2021

   => Loading Basis Set <=

    Name: AUG-CC-PVDZ
    Role: ORBITAL
    Keyword: BASIS
    atoms 1             entry N          line   214 file /fsx/users/francis/anaconda3/envs/poltype-dev/share/psi4/basis/aug-cc-pvdz.gbs 
    atoms 2-3, 6-12, 14 entry C          line   178 file /fsx/users/francis/anaconda3/envs/poltype-dev/share/psi4/basis/aug-cc-pvdz.gbs 
    atoms 4-5           entry F          line   286 file /fsx/users/francis/anaconda3/envs/poltype-dev/share/psi4/basis/aug-cc-pvdz.gbs 
    atoms 13            entry S          line   698 file /fsx/users/francis/anaconda3/envs/poltype-dev/share/psi4/basis/aug-cc-pvdz.gbs 
    atoms 15-16, 24     entry O          line   250 file /fsx/users/francis/anaconda3/envs/poltype-dev/share/psi4/basis/aug-cc-pvdz.gbs 
    atoms 17-23, 25-26  entry H          line    36 file /fsx/users/francis/anaconda3/envs/poltype-dev/share/psi4/basis/aug-cc-pvdz.gbs 


         ---------------------------------------------------------
                                   SCF
               by Justin Turney, Rob Parrish, Andy Simmonett
                          and Daniel G. A. Smith
                              RKS Reference
                        8 Threads,  15258 MiB Core
         ---------------------------------------------------------

  ==> Geometry <==

    Molecular point group: c1
    Full point group: C1

    Geometry (in Angstrom), charge = 0, multiplicity = 1:

       Center              X                  Y                   Z               Mass       
    ------------   -----------------  -----------------  -----------------  -----------------
         N           -1.020978806530    -1.500108397155     0.349829022912    14.003074004430
         C           -2.298087806530    -1.227927397155     0.764416022912    12.000000000000
         C           -2.751804806530     0.265144602845     0.650954022912    12.000000000000
         F           -3.843647806530     0.303296602845    -0.186607977088    18.998403162730
         F           -3.153619806530     0.672657602845     1.903443022912    18.998403162730
         C           -1.700305806530     1.300009602845     0.119567022912    12.000000000000
         C           -0.370197806530     0.785356602845    -0.279144977088    12.000000000000
         C            0.614668193470     1.672203602845    -0.766625977088    12.000000000000
         C            1.863947193470     1.199403602845    -1.186848977088    12.000000000000
         C            2.178532193470    -0.179376397155    -1.077265977088    12.000000000000
         C            1.208206193470    -1.061791397155    -0.555386977088    12.000000000000
         C           -0.058738806530    -0.597879397155    -0.161078977088    12.000000000000
         S            3.716386193470    -0.895940397155    -1.583604977088    31.972071174400
         C            4.899880193470    -0.299072397155    -0.350354977088    12.000000000000
         O           -3.016022806530    -2.122157397155     1.187351022912    15.994914619570
         O           -1.984337806530     2.491109602845     0.035710022912    15.994914619570
         H            2.577717193470     1.909892602845    -1.602474977088     1.007825032230
         H            0.365857193470     2.731513602845    -0.837803977088     1.007825032230
         H           -0.785960806530    -2.478187397155     0.451881022912     1.007825032230
         H            1.441296193470    -2.123821397155    -0.467460977088     1.007825032230
         H            5.048359193470     0.777185602845    -0.480628977088     1.007825032230
         H            4.515855193470    -0.497600397155     0.655753022912     1.007825032230
         H            5.851621193470    -0.820558397155    -0.488044977088     1.007825032230
      Gh(O)           2.592057793470     0.136652402845     1.706378622912    15.994914619570
      Gh(H)           2.177629793470     0.332212402845     0.864335622912     1.007825032230
      Gh(H)           2.522653793470     0.913215402845     2.262070622912     1.007825032230

  Running in c1 symmetry.

  Rotational constants: A =      0.02997  B =      0.00755  C =      0.00695 [cm^-1]
  Rotational constants: A =    898.37138  B =    226.47547  C =    208.22917 [MHz]
  Nuclear repulsion = 1176.846761692086147

  Charge       = 0
  Multiplicity = 1
  Electrons    = 124
  Nalpha       = 62
  Nbeta        = 62

  ==> Algorithm <==

  SCF Algorithm Type is DF.
  DIIS enabled.
  MOM disabled.
  Fractional occupation disabled.
  Guess Type is SAD.
  Energy threshold   = 1.00e-06
  Density threshold  = 1.00e-06
  Integral threshold = 0.00e+00

  ==> Primary Basis <==

  Basis Set: AUG-CC-PVDZ
    Blend: AUG-CC-PVDZ
    Number of shells: 200
    Number of basis function: 476
    Number of Cartesian functions: 510
    Spherical Harmonics?: true
    Max angular momentum: 2

  ==> DFT Potential <==

   => Composite Functional: WB97X-D <= 

    wB97X-D Hyb-GGA Exchange-Correlation Functional

    J.-D. Chai and M. Head-Gordon, Phys. Chem. Chem. Phys. 10, 6615 (2008)

    Deriv               =              1
    GGA                 =           TRUE
    Meta                =          FALSE

    Exchange Hybrid     =           TRUE
    MP2 Hybrid          =          FALSE

   => Exchange-Correlation Functionals <=

    1.0000   wB97D range-separated functional

   => Exact (HF) Exchange <=

    0.7780            HF,LR [omega = 0.2000]
    0.2220               HF 

   => Molecular Quadrature <=

    Radial Scheme          =       TREUTLER
    Pruning Scheme         =           FLAT
    Nuclear Scheme         =       TREUTLER

    BS radius alpha        =              1
    Pruning alpha          =              1
    Radial Points          =             75
    Spherical Points       =            302
    Total Points           =         588900
    Total Blocks           =           4374
    Max Points             =            256
    Max Functions          =            425

   => WB97X-D: Empirical Dispersion <=

    Chai and Head-Gordon Dispersion Correction
    Chai, J.-D.; Head-Gordon, M. (2010), J. Chem. Phys., 132: 6615-6620

        s6 =       1.000000

   => Loading Basis Set <=

    Name: (AUG-CC-PVDZ AUX)
    Role: JKFIT
    Keyword: DF_BASIS_SCF
    atoms 1             entry N          line   212 file /fsx/users/francis/anaconda3/envs/poltype-dev/share/psi4/basis/aug-cc-pvdz-jkfit.gbs 
    atoms 2-3, 6-12, 14 entry C          line   154 file /fsx/users/francis/anaconda3/envs/poltype-dev/share/psi4/basis/aug-cc-pvdz-jkfit.gbs 
    atoms 4-5           entry F          line   328 file /fsx/users/francis/anaconda3/envs/poltype-dev/share/psi4/basis/aug-cc-pvdz-jkfit.gbs 
    atoms 13            entry S          line   690 file /fsx/users/francis/anaconda3/envs/poltype-dev/share/psi4/basis/aug-cc-pvdz-jkfit.gbs 
    atoms 15-16, 24     entry O          line   270 file /fsx/users/francis/anaconda3/envs/poltype-dev/share/psi4/basis/aug-cc-pvdz-jkfit.gbs 
    atoms 17-23, 25-26  entry H          line    70 file /fsx/users/francis/anaconda3/envs/poltype-dev/share/psi4/basis/aug-cc-pvdz-jkfit.gbs 

  ==> Pre-Iterations <==

   -------------------------------------------------------
    Irrep   Nso     Nmo     Nalpha   Nbeta   Ndocc  Nsocc
   -------------------------------------------------------
     A        476     476       0       0       0       0
   -------------------------------------------------------
    Total     476     476      62      62      62       0
   -------------------------------------------------------

  ==> Integral Setup <==

  ==> DiskDFJK: Density-Fitted J/K Matrices <==

    J tasked:                  Yes
    K tasked:                  Yes
    wK tasked:                 Yes
    Omega:               2.000E-01
    OpenMP threads:              8
    Integrals threads:           8
    Memory [MiB]:             5753
    Algorithm:                Core
    Integral Cache:           NONE
    Schwarz Cutoff:          1E-12
    Fitting Condition:       1E-10

   => Auxiliary Basis Set <=

  Basis Set: (AUG-CC-PVDZ AUX)
    Blend: AUG-CC-PVDZ-JKFIT
    Number of shells: 596
    Number of basis function: 1792
    Number of Cartesian functions: 2081
    Spherical Harmonics?: true
    Max angular momentum: 3

  Cached 100.0% of DFT collocation blocks in 5.557 [GiB].

  Minimum eigenvalue in the overlap matrix is 1.2220930757E-06.
  Using Symmetric Orthogonalization.

  SCF Guess: Superposition of Atomic Densities via on-the-fly atomic UHF.

  ==> Iterations <==

                           Total Energy        Delta E     RMS |[F,P]|

   @DF-RKS iter SAD: -1187.41129662810044   -1.18741e+03   0.00000e+00 
   @DF-RKS iter   1: -1187.68189465450928   -2.70598e-01   2.22931e-03 DIIS
   @DF-RKS iter   2: -1187.69620345323733   -1.43088e-02   2.40639e-03 DIIS
   @DF-RKS iter   3: -1188.17713303537539   -4.80930e-01   5.59099e-04 DIIS
   @DF-RKS iter   4: -1188.20457178063134   -2.74387e-02   1.52652e-04 DIIS
   @DF-RKS iter   5: -1188.20698592429108   -2.41414e-03   4.32933e-05 DIIS
   @DF-RKS iter   6: -1188.20724812958656   -2.62205e-04   1.47031e-05 DIIS
   @DF-RKS iter   7: -1188.20728367491006   -3.55453e-05   5.13066e-06 DIIS
   @DF-RKS iter   8: -1188.20729288672624   -9.21182e-06   2.07480e-06 DIIS
   @DF-RKS iter   9: -1188.20729534331190   -2.45659e-06   1.23311e-06 DIIS
   @DF-RKS iter  10: -1188.20729569876858   -3.55457e-07   4.49984e-07 DIIS
  Energy and wave function converged.


  ==> Post-Iterations <==

    Orbital Energies [Eh]
    ---------------------

    Doubly Occupied:                                                      

       1A    -89.071723     2A    -24.873927     3A    -24.873128  
       4A    -19.301889     5A    -19.286931     6A    -14.536270  
       7A    -10.508487     8A    -10.454553     9A    -10.434374  
      10A    -10.407111    11A    -10.379759    12A    -10.354730  
      13A    -10.351333    14A    -10.349535    15A    -10.346427  
      16A    -10.343287    17A     -8.089069    18A     -6.038930  
      19A     -6.034766    20A     -6.027925    21A     -1.384819  
      22A     -1.328923    23A     -1.190584    24A     -1.179691  
      25A     -1.093762    26A     -0.999935    27A     -0.937857  
      28A     -0.902994    29A     -0.887665    30A     -0.866593  
      31A     -0.792949    32A     -0.765374    33A     -0.751702  
      34A     -0.740619    35A     -0.694748    36A     -0.679096  
      37A     -0.668884    38A     -0.643689    39A     -0.628157  
      40A     -0.589935    41A     -0.579048    42A     -0.567105  
      43A     -0.563459    44A     -0.556033    45A     -0.554276  
      46A     -0.552027    47A     -0.537592    48A     -0.535515  
      49A     -0.526757    50A     -0.518263    51A     -0.509829  
      52A     -0.499792    53A     -0.495001    54A     -0.478702  
      55A     -0.473994    56A     -0.441348    57A     -0.420897  
      58A     -0.397092    59A     -0.371105    60A     -0.370504  
      61A     -0.341115    62A     -0.329430  

    Virtual:                                                              

      63A     -0.055659    64A      0.007667    65A      0.022166  
      66A      0.031983    67A      0.036235    68A      0.041088  
      69A      0.044579    70A      0.056677    71A      0.059120  
      72A      0.063943    73A      0.065537    74A      0.075080  
      75A      0.079732    76A      0.084553    77A      0.088355  
      78A      0.091681    79A      0.101895    80A      0.108770  
      81A      0.110798    82A      0.113765    83A      0.117363  
      84A      0.119480    85A      0.124616    86A      0.125452  
      87A      0.134013    88A      0.135033    89A      0.137369  
      90A      0.144914    91A      0.149027    92A      0.153592  
      93A      0.155578    94A      0.157545    95A      0.162459  
      96A      0.165934    97A      0.169177    98A      0.172357  
      99A      0.173471   100A      0.176264   101A      0.181873  
     102A      0.187056   103A      0.192333   104A      0.193388  
     105A      0.200617   106A      0.204469   107A      0.208708  
     108A      0.211910   109A      0.212998   110A      0.217746  
     111A      0.222245   112A      0.225169   113A      0.230869  
     114A      0.233938   115A      0.238000   116A      0.241922  
     117A      0.245599   118A      0.250450   119A      0.253745  
     120A      0.259586   121A      0.260558   122A      0.266584  
     123A      0.270213   124A      0.274673   125A      0.277714  
     126A      0.278744   127A      0.283591   128A      0.284146  
     129A      0.287808   130A      0.292809   131A      0.301592  
     132A      0.302590   133A      0.305036   134A      0.312766  
     135A      0.320879   136A      0.322202   137A      0.326773  
     138A      0.328822   139A      0.335881   140A      0.337927  
     141A      0.340893   142A      0.342561   143A      0.349644  
     144A      0.353359   145A      0.357443   146A      0.365168  
     147A      0.366409   148A      0.367641   149A      0.371053  
     150A      0.373172   151A      0.377716   152A      0.382697  
     153A      0.387279   154A      0.392922   155A      0.394085  
     156A      0.397225   157A      0.403819   158A      0.405856  
     159A      0.414123   160A      0.415529   161A      0.420467  
     162A      0.424571   163A      0.427925   164A      0.436700  
     165A      0.443085   166A      0.446871   167A      0.453610  
     168A      0.460719   169A      0.461771   170A      0.472739  
     171A      0.479937   172A      0.483670   173A      0.488356  
     174A      0.492699   175A      0.495922   176A      0.497828  
     177A      0.509116   178A      0.512845   179A      0.518680  
     180A      0.523887   181A      0.529843   182A      0.533250  
     183A      0.534555   184A      0.540895   185A      0.548235  
     186A      0.557257   187A      0.559784   188A      0.563060  
     189A      0.574133   190A      0.575897   191A      0.582125  
     192A      0.588920   193A      0.590131   194A      0.599803  
     195A      0.608875   196A      0.610398   197A      0.618197  
     198A      0.626522   199A      0.630420   200A      0.632579  
     201A      0.637502   202A      0.638468   203A      0.644206  
     204A      0.645313   205A      0.653169   206A      0.658554  
     207A      0.660186   208A      0.668960   209A      0.672257  
     210A      0.674923   211A      0.679978   212A      0.685718  
     213A      0.687855   214A      0.697233   215A      0.701707  
     216A      0.711254   217A      0.716755   218A      0.720611  
     219A      0.723110   220A      0.734160   221A      0.734589  
     222A      0.737941   223A      0.745700   224A      0.749309  
     225A      0.759783   226A      0.766701   227A      0.772074  
     228A      0.776272   229A      0.786572   230A      0.789439  
     231A      0.797929   232A      0.800763   233A      0.805536  
     234A      0.811594   235A      0.817228   236A      0.826509  
     237A      0.834029   238A      0.844573   239A      0.847552  
     240A      0.855347   241A      0.867173   242A      0.875962  
     243A      0.877341   244A      0.885903   245A      0.901771  
     246A      0.904445   247A      0.909206   248A      0.917975  
     249A      0.923456   250A      0.933237   251A      0.940323  
     252A      0.952476   253A      0.967712   254A      0.972467  
     255A      0.978364   256A      0.984266   257A      0.993113  
     258A      1.005941   259A      1.006381   260A      1.018976  
     261A      1.022997   262A      1.053088   263A      1.055840  
     264A      1.064603   265A      1.071206   266A      1.081298  
     267A      1.092094   268A      1.103321   269A      1.107975  
     270A      1.111294   271A      1.121922   272A      1.127965  
     273A      1.138992   274A      1.143516   275A      1.156283  
     276A      1.164758   277A      1.168492   278A      1.184411  
     279A      1.190542   280A      1.214325   281A      1.217604  
     282A      1.226963   283A      1.235810   284A      1.242263  
     285A      1.251027   286A      1.254555   287A      1.265493  
     288A      1.271304   289A      1.272338   290A      1.287185  
     291A      1.296397   292A      1.301298   293A      1.311009  
     294A      1.317698   295A      1.325376   296A      1.333232  
     297A      1.341142   298A      1.346259   299A      1.367992  
     300A      1.374756   301A      1.391346   302A      1.395173  
     303A      1.398619   304A      1.403473   305A      1.422763  
     306A      1.433294   307A      1.440147   308A      1.449569  
     309A      1.468914   310A      1.474666   311A      1.483895  
     312A      1.487696   313A      1.490650   314A      1.501095  
     315A      1.510628   316A      1.527251   317A      1.541894  
     318A      1.544837   319A      1.551909   320A      1.563679  
     321A      1.565259   322A      1.571111   323A      1.572713  
     324A      1.583175   325A      1.595202   326A      1.600047  
     327A      1.613718   328A      1.619545   329A      1.620412  
     330A      1.632801   331A      1.640518   332A      1.647422  
     333A      1.654354   334A      1.657562   335A      1.667792  
     336A      1.674337   337A      1.685143   338A      1.691301  
     339A      1.700148   340A      1.706319   341A      1.721374  
     342A      1.730963   343A      1.738537   344A      1.757550  
     345A      1.767352   346A      1.773369   347A      1.786343  
     348A      1.790890   349A      1.806747   350A      1.815825  
     351A      1.828354   352A      1.837113   353A      1.840453  
     354A      1.857528   355A      1.866980   356A      1.877773  
     357A      1.882973   358A      1.895303   359A      1.906219  
     360A      1.915222   361A      1.936940   362A      1.940097  
     363A      1.946516   364A      1.950943   365A      1.954294  
     366A      1.965463   367A      1.972056   368A      1.985678  
     369A      1.992988   370A      2.008391   371A      2.015841  
     372A      2.036363   373A      2.045102   374A      2.049867  
     375A      2.066163   376A      2.070355   377A      2.077432  
     378A      2.090093   379A      2.096038   380A      2.108268  
     381A      2.113850   382A      2.130553   383A      2.145063  
     384A      2.152695   385A      2.168469   386A      2.180240  
     387A      2.185411   388A      2.199837   389A      2.208399  
     390A      2.220688   391A      2.229631   392A      2.242794  
     393A      2.244343   394A      2.295193   395A      2.302474  
     396A      2.309814   397A      2.323331   398A      2.341661  
     399A      2.350310   400A      2.356897   401A      2.363723  
     402A      2.387881   403A      2.407486   404A      2.427030  
     405A      2.435587   406A      2.459151   407A      2.490452  
     408A      2.521341   409A      2.525135   410A      2.552955  
     411A      2.559265   412A      2.567089   413A      2.571744  
     414A      2.619170   415A      2.627313   416A      2.652084  
     417A      2.678476   418A      2.685481   419A      2.697356  
     420A      2.708536   421A      2.725202   422A      2.751147  
     423A      2.769878   424A      2.781994   425A      2.824791  
     426A      2.863778   427A      2.881678   428A      2.941147  
     429A      2.986569   430A      3.005533   431A      3.047296  
     432A      3.078286   433A      3.135972   434A      3.172507  
     435A      3.220370   436A      3.373741   437A      3.409415  
     438A      3.414995   439A      3.441307   440A      3.455589  
     441A      3.477673   442A      3.504500   443A      3.527217  
     444A      3.530453   445A      3.569070   446A      3.579681  
     447A      3.620922   448A      3.705623   449A      3.714178  
     450A      3.753357   451A      3.821380   452A      3.867530  
     453A      3.909701   454A      4.048335   455A      4.216969  
     456A      4.262902   457A      4.580361   458A      4.609277  
     459A      4.648605   460A      4.682232   461A      4.718776  
     462A      4.741614   463A      4.743299   464A      4.812905  
     465A      4.841579   466A      4.851855   467A      4.898030  
     468A      5.000144   469A      5.057614   470A      5.073510  
     471A      5.355228   472A      5.565139   473A      6.055680  
     474A      6.725502   475A      7.179223   476A     33.576765  

    Final Occupation by Irrep:
              A 
    DOCC [    62 ]

  @DF-RKS Final Energy: -1188.20729569876858

   => Energetics <=

    Nuclear Repulsion Energy =           1176.8467616920861474
    One-Electron Energy =               -3968.1435658743894237
    Two-Electron Energy =                1692.6484587081604332
    DFT Exchange-Correlation Energy =     -89.5455431109055695
    Empirical Dispersion Energy =          -0.0134071137201686
    VV10 Nonlocal Energy =                  0.0000000000000000
    Total Energy =                      -1188.2072956987685757

Computation Completed


Properties will be evaluated at  -0.000000,  -0.000000,  -0.000000 [a0]

Properties computed using the SCF density matrix

  Nuclear Dipole Moment: [e a0]
     X:   -19.1460      Y:    -4.6596      Z:   -33.0178

  Electronic Dipole Moment: [e a0]
     X:    21.8324      Y:     4.3214      Z:    32.7541

  Dipole Moment: [e a0]
     X:     2.6864      Y:    -0.3382      Z:    -0.2637     Total:     2.7204

  Dipole Moment: [D]
     X:     6.8281      Y:    -0.8596      Z:    -0.6703     Total:     6.9146


*** tstop() called on cpu-spot-dy-c5n2xlarge-1 at Tue Jun 22 20:14:39 2021
Module time:
	user time   =     939.66 seconds =      15.66 minutes
	system time =       8.92 seconds =       0.15 minutes
	total time  =        127 seconds =       2.12 minutes
Total time:
	user time   =    1546.14 seconds =      25.77 minutes
	system time =      15.94 seconds =       0.27 minutes
	total time  =        210 seconds =       3.50 minutes

       N-Body: Complex Energy (fragments = (1,), basis = (1, 2): -1188.20729569876858)

       N-Body: Computing complex (4/4) with fragments (1,) in the basis of fragments (1,).


*** tstart() called on cpu-spot-dy-c5n2xlarge-1
*** at Tue Jun 22 20:14:39 2021

   => Loading Basis Set <=

    Name: AUG-CC-PVDZ
    Role: ORBITAL
    Keyword: BASIS
    atoms 1             entry N          line   214 file /fsx/users/francis/anaconda3/envs/poltype-dev/share/psi4/basis/aug-cc-pvdz.gbs 
    atoms 2-3, 6-12, 14 entry C          line   178 file /fsx/users/francis/anaconda3/envs/poltype-dev/share/psi4/basis/aug-cc-pvdz.gbs 
    atoms 4-5           entry F          line   286 file /fsx/users/francis/anaconda3/envs/poltype-dev/share/psi4/basis/aug-cc-pvdz.gbs 
    atoms 13            entry S          line   698 file /fsx/users/francis/anaconda3/envs/poltype-dev/share/psi4/basis/aug-cc-pvdz.gbs 
    atoms 15-16         entry O          line   250 file /fsx/users/francis/anaconda3/envs/poltype-dev/share/psi4/basis/aug-cc-pvdz.gbs 
    atoms 17-23         entry H          line    36 file /fsx/users/francis/anaconda3/envs/poltype-dev/share/psi4/basis/aug-cc-pvdz.gbs 


         ---------------------------------------------------------
                                   SCF
               by Justin Turney, Rob Parrish, Andy Simmonett
                          and Daniel G. A. Smith
                              RKS Reference
                        8 Threads,  15258 MiB Core
         ---------------------------------------------------------

  ==> Geometry <==

    Molecular point group: c1
    Full point group: C1

    Geometry (in Angstrom), charge = 0, multiplicity = 1:

       Center              X                  Y                   Z               Mass       
    ------------   -----------------  -----------------  -----------------  -----------------
         N           -1.020978806530    -1.500108397155     0.349829022912    14.003074004430
         C           -2.298087806530    -1.227927397155     0.764416022912    12.000000000000
         C           -2.751804806530     0.265144602845     0.650954022912    12.000000000000
         F           -3.843647806530     0.303296602845    -0.186607977088    18.998403162730
         F           -3.153619806530     0.672657602845     1.903443022912    18.998403162730
         C           -1.700305806530     1.300009602845     0.119567022912    12.000000000000
         C           -0.370197806530     0.785356602845    -0.279144977088    12.000000000000
         C            0.614668193470     1.672203602845    -0.766625977088    12.000000000000
         C            1.863947193470     1.199403602845    -1.186848977088    12.000000000000
         C            2.178532193470    -0.179376397155    -1.077265977088    12.000000000000
         C            1.208206193470    -1.061791397155    -0.555386977088    12.000000000000
         C           -0.058738806530    -0.597879397155    -0.161078977088    12.000000000000
         S            3.716386193470    -0.895940397155    -1.583604977088    31.972071174400
         C            4.899880193470    -0.299072397155    -0.350354977088    12.000000000000
         O           -3.016022806530    -2.122157397155     1.187351022912    15.994914619570
         O           -1.984337806530     2.491109602845     0.035710022912    15.994914619570
         H            2.577717193470     1.909892602845    -1.602474977088     1.007825032230
         H            0.365857193470     2.731513602845    -0.837803977088     1.007825032230
         H           -0.785960806530    -2.478187397155     0.451881022912     1.007825032230
         H            1.441296193470    -2.123821397155    -0.467460977088     1.007825032230
         H            5.048359193470     0.777185602845    -0.480628977088     1.007825032230
         H            4.515855193470    -0.497600397155     0.655753022912     1.007825032230
         H            5.851621193470    -0.820558397155    -0.488044977088     1.007825032230

  Running in c1 symmetry.

  Rotational constants: A =      0.03623  B =      0.00818  C =      0.00717 [cm^-1]
  Rotational constants: A =   1086.14047  B =    245.36875  C =    214.93370 [MHz]
  Nuclear repulsion = 1176.846761692086147

  Charge       = 0
  Multiplicity = 1
  Electrons    = 124
  Nalpha       = 62
  Nbeta        = 62

  ==> Algorithm <==

  SCF Algorithm Type is DF.
  DIIS enabled.
  MOM disabled.
  Fractional occupation disabled.
  Guess Type is SAD.
  Energy threshold   = 1.00e-06
  Density threshold  = 1.00e-06
  Integral threshold = 0.00e+00

  ==> Primary Basis <==

  Basis Set: AUG-CC-PVDZ
    Blend: AUG-CC-PVDZ
    Number of shells: 181
    Number of basis function: 435
    Number of Cartesian functions: 467
    Spherical Harmonics?: true
    Max angular momentum: 2

  ==> DFT Potential <==

   => Composite Functional: WB97X-D <= 

    wB97X-D Hyb-GGA Exchange-Correlation Functional

    J.-D. Chai and M. Head-Gordon, Phys. Chem. Chem. Phys. 10, 6615 (2008)

    Deriv               =              1
    GGA                 =           TRUE
    Meta                =          FALSE

    Exchange Hybrid     =           TRUE
    MP2 Hybrid          =          FALSE

   => Exchange-Correlation Functionals <=

    1.0000   wB97D range-separated functional

   => Exact (HF) Exchange <=

    0.7780            HF,LR [omega = 0.2000]
    0.2220               HF 

   => Molecular Quadrature <=

    Radial Scheme          =       TREUTLER
    Pruning Scheme         =           FLAT
    Nuclear Scheme         =       TREUTLER

    BS radius alpha        =              1
    Pruning alpha          =              1
    Radial Points          =             75
    Spherical Points       =            302
    Total Points           =         520950
    Total Blocks           =           3901
    Max Points             =            256
    Max Functions          =            394

   => WB97X-D: Empirical Dispersion <=

    Chai and Head-Gordon Dispersion Correction
    Chai, J.-D.; Head-Gordon, M. (2010), J. Chem. Phys., 132: 6615-6620

        s6 =       1.000000

   => Loading Basis Set <=

    Name: (AUG-CC-PVDZ AUX)
    Role: JKFIT
    Keyword: DF_BASIS_SCF
    atoms 1             entry N          line   212 file /fsx/users/francis/anaconda3/envs/poltype-dev/share/psi4/basis/aug-cc-pvdz-jkfit.gbs 
    atoms 2-3, 6-12, 14 entry C          line   154 file /fsx/users/francis/anaconda3/envs/poltype-dev/share/psi4/basis/aug-cc-pvdz-jkfit.gbs 
    atoms 4-5           entry F          line   328 file /fsx/users/francis/anaconda3/envs/poltype-dev/share/psi4/basis/aug-cc-pvdz-jkfit.gbs 
    atoms 13            entry S          line   690 file /fsx/users/francis/anaconda3/envs/poltype-dev/share/psi4/basis/aug-cc-pvdz-jkfit.gbs 
    atoms 15-16         entry O          line   270 file /fsx/users/francis/anaconda3/envs/poltype-dev/share/psi4/basis/aug-cc-pvdz-jkfit.gbs 
    atoms 17-23         entry H          line    70 file /fsx/users/francis/anaconda3/envs/poltype-dev/share/psi4/basis/aug-cc-pvdz-jkfit.gbs 

  ==> Pre-Iterations <==

   -------------------------------------------------------
    Irrep   Nso     Nmo     Nalpha   Nbeta   Ndocc  Nsocc
   -------------------------------------------------------
     A        435     435       0       0       0       0
   -------------------------------------------------------
    Total     435     435      62      62      62       0
   -------------------------------------------------------

  ==> Integral Setup <==

  ==> DiskDFJK: Density-Fitted J/K Matrices <==

    J tasked:                  Yes
    K tasked:                  Yes
    wK tasked:                 Yes
    Omega:               2.000E-01
    OpenMP threads:              8
    Integrals threads:           8
    Memory [MiB]:             6813
    Algorithm:                Core
    Integral Cache:           NONE
    Schwarz Cutoff:          1E-12
    Fitting Condition:       1E-10

   => Auxiliary Basis Set <=

  Basis Set: (AUG-CC-PVDZ AUX)
    Blend: AUG-CC-PVDZ-JKFIT
    Number of shells: 544
    Number of basis function: 1642
    Number of Cartesian functions: 1910
    Spherical Harmonics?: true
    Max angular momentum: 3

  Cached 100.0% of DFT collocation blocks in 4.522 [GiB].

  Minimum eigenvalue in the overlap matrix is 1.3695621062E-06.
  Using Symmetric Orthogonalization.

  SCF Guess: Superposition of Atomic Densities via on-the-fly atomic UHF.

  ==> Iterations <==

                           Total Energy        Delta E     RMS |[F,P]|

   @DF-RKS iter SAD: -1187.41128554478178   -1.18741e+03   0.00000e+00 
   @DF-RKS iter   1: -1187.68090426217782   -2.69619e-01   2.43591e-03 DIIS
   @DF-RKS iter   2: -1187.69529642901284   -1.43922e-02   2.63273e-03 DIIS
   @DF-RKS iter   3: -1188.17632794606857   -4.81032e-01   6.10555e-04 DIIS
   @DF-RKS iter   4: -1188.20369107827946   -2.73631e-02   1.66437e-04 DIIS
   @DF-RKS iter   5: -1188.20608855600813   -2.39748e-03   4.73376e-05 DIIS
   @DF-RKS iter   6: -1188.20635040476691   -2.61849e-04   1.60709e-05 DIIS
   @DF-RKS iter   7: -1188.20638588056067   -3.54758e-05   5.60353e-06 DIIS
   @DF-RKS iter   8: -1188.20639509103535   -9.21047e-06   2.26887e-06 DIIS
   @DF-RKS iter   9: -1188.20639754776812   -2.45673e-06   1.35017e-06 DIIS
   @DF-RKS iter  10: -1188.20639790237465   -3.54607e-07   4.90099e-07 DIIS
  Energy and wave function converged.


  ==> Post-Iterations <==

    Orbital Energies [Eh]
    ---------------------

    Doubly Occupied:                                                      

       1A    -89.071709     2A    -24.873988     3A    -24.873174  
       4A    -19.302019     5A    -19.287015     6A    -14.536418  
       7A    -10.508589     8A    -10.454658     9A    -10.434548  
      10A    -10.407211    11A    -10.379641    12A    -10.354857  
      13A    -10.351396    14A    -10.349462    15A    -10.346592  
      16A    -10.343280    17A     -8.089146    18A     -6.039007  
      19A     -6.034841    20A     -6.027990    21A     -1.384885  
      22A     -1.328985    23A     -1.190674    24A     -1.179814  
      25A     -1.093900    26A     -1.000210    27A     -0.938057  
      28A     -0.903146    29A     -0.887895    30A     -0.866744  
      31A     -0.793100    32A     -0.765555    33A     -0.751856  
      34A     -0.740765    35A     -0.694916    36A     -0.679243  
      37A     -0.668948    38A     -0.643851    39A     -0.628319  
      40A     -0.590131    41A     -0.579227    42A     -0.567199  
      43A     -0.563567    44A     -0.556278    45A     -0.554366  
      46A     -0.552138    47A     -0.537672    48A     -0.535559  
      49A     -0.526853    50A     -0.518331    51A     -0.509926  
      52A     -0.499926    53A     -0.495126    54A     -0.478853  
      55A     -0.474182    56A     -0.441496    57A     -0.421036  
      58A     -0.397195    59A     -0.371276    60A     -0.370615  
      61A     -0.341268    62A     -0.329556  

    Virtual:                                                              

      63A     -0.055800    64A      0.007479    65A      0.023809  
      66A      0.032078    67A      0.036994    68A      0.042615  
      69A      0.048029    70A      0.057404    71A      0.059786  
      72A      0.064837    73A      0.073575    74A      0.077999  
      75A      0.082505    76A      0.090752    77A      0.093160  
      78A      0.102458    79A      0.105921    80A      0.111343  
      81A      0.114205    82A      0.116906    83A      0.119457  
      84A      0.122957    85A      0.127857    86A      0.133494  
      87A      0.135565    88A      0.143307    89A      0.146384  
      90A      0.152274    91A      0.154216    92A      0.157192  
      93A      0.160328    94A      0.162311    95A      0.169229  
      96A      0.171314    97A      0.173105    98A      0.177944  
      99A      0.180571   100A      0.181666   101A      0.191526  
     102A      0.194399   103A      0.196873   104A      0.205985  
     105A      0.210620   106A      0.213579   107A      0.215551  
     108A      0.223075   109A      0.224560   110A      0.230351  
     111A      0.235224   112A      0.236869   113A      0.241117  
     114A      0.245395   115A      0.249914   116A      0.253374  
     117A      0.254553   118A      0.261689   119A      0.266788  
     120A      0.269254   121A      0.275379   122A      0.278038  
     123A      0.279623   124A      0.285606   125A      0.292560  
     126A      0.293055   127A      0.299084   128A      0.304321  
     129A      0.305866   130A      0.311924   131A      0.315455  
     132A      0.320522   133A      0.322005   134A      0.328473  
     135A      0.332373   136A      0.333350   137A      0.341314  
     138A      0.343609   139A      0.348205   140A      0.354739  
     141A      0.358102   142A      0.363689   143A      0.366028  
     144A      0.367435   145A      0.376777   146A      0.379265  
     147A      0.384154   148A      0.386285   149A      0.393484  
     150A      0.394041   151A      0.398296   152A      0.403438  
     153A      0.407666   154A      0.410175   155A      0.415720  
     156A      0.422354   157A      0.429111   158A      0.432436  
     159A      0.439835   160A      0.445665   161A      0.455929  
     162A      0.463923   163A      0.465654   164A      0.475819  
     165A      0.480389   166A      0.484319   167A      0.491365  
     168A      0.493958   169A      0.497528   170A      0.506443  
     171A      0.512993   172A      0.516848   173A      0.526501  
     174A      0.529607   175A      0.534054   176A      0.540948  
     177A      0.545529   178A      0.548419   179A      0.554604  
     180A      0.562322   181A      0.570071   182A      0.580277  
     183A      0.586460   184A      0.588189   185A      0.598109  
     186A      0.603482   187A      0.609639   188A      0.615521  
     189A      0.622130   190A      0.627895   191A      0.630013  
     192A      0.632897   193A      0.642321   194A      0.644851  
     195A      0.648182   196A      0.650940   197A      0.659402  
     198A      0.661216   199A      0.663662   200A      0.669372  
     201A      0.678981   202A      0.681508   203A      0.688469  
     204A      0.694263   205A      0.701046   206A      0.706629  
     207A      0.711407   208A      0.721571   209A      0.723294  
     210A      0.734333   211A      0.741157   212A      0.749451  
     213A      0.754080   214A      0.759505   215A      0.766813  
     216A      0.769312   217A      0.779910   218A      0.784649  
     219A      0.787952   220A      0.793875   221A      0.802682  
     222A      0.807443   223A      0.812367   224A      0.818341  
     225A      0.827886   226A      0.831843   227A      0.841109  
     228A      0.843341   229A      0.849407   230A      0.858756  
     231A      0.867087   232A      0.876709   233A      0.886678  
     234A      0.891626   235A      0.905039   236A      0.916411  
     237A      0.924100   238A      0.931992   239A      0.940425  
     240A      0.952380   241A      0.966125   242A      0.970965  
     243A      0.976210   244A      0.984088   245A      0.992673  
     246A      0.999861   247A      1.008905   248A      1.021797  
     249A      1.044421   250A      1.048082   251A      1.060921  
     252A      1.064139   253A      1.083446   254A      1.087090  
     255A      1.100217   256A      1.108736   257A      1.110493  
     258A      1.116551   259A      1.134510   260A      1.143540  
     261A      1.149619   262A      1.158175   263A      1.169873  
     264A      1.175176   265A      1.191875   266A      1.208526  
     267A      1.214729   268A      1.228500   269A      1.234539  
     270A      1.253554   271A      1.261143   272A      1.264495  
     273A      1.269609   274A      1.287594   275A      1.292283  
     276A      1.296635   277A      1.302497   278A      1.316470  
     279A      1.329268   280A      1.341037   281A      1.356401  
     282A      1.372815   283A      1.374089   284A      1.380933  
     285A      1.390761   286A      1.405508   287A      1.411193  
     288A      1.429464   289A      1.440503   290A      1.441194  
     291A      1.457912   292A      1.463325   293A      1.476769  
     294A      1.479274   295A      1.498542   296A      1.503826  
     297A      1.518206   298A      1.538051   299A      1.541765  
     300A      1.549066   301A      1.557431   302A      1.560347  
     303A      1.570031   304A      1.588145   305A      1.592728  
     306A      1.595522   307A      1.601289   308A      1.610721  
     309A      1.615048   310A      1.622222   311A      1.626668  
     312A      1.639589   313A      1.654179   314A      1.654831  
     315A      1.665167   316A      1.673571   317A      1.683762  
     318A      1.698052   319A      1.699497   320A      1.706330  
     321A      1.718143   322A      1.728258   323A      1.736523  
     324A      1.738744   325A      1.756424   326A      1.771983  
     327A      1.777239   328A      1.789932   329A      1.802527  
     330A      1.819920   331A      1.823746   332A      1.836876  
     333A      1.853102   334A      1.860314   335A      1.869374  
     336A      1.874037   337A      1.888852   338A      1.909078  
     339A      1.916756   340A      1.925323   341A      1.932664  
     342A      1.944140   343A      1.949412   344A      1.957212  
     345A      1.969438   346A      1.977964   347A      1.983049  
     348A      1.994291   349A      2.005269   350A      2.013536  
     351A      2.032470   352A      2.037848   353A      2.051643  
     354A      2.060942   355A      2.070042   356A      2.083769  
     357A      2.093481   358A      2.102093   359A      2.123352  
     360A      2.126311   361A      2.135713   362A      2.153845  
     363A      2.158541   364A      2.175348   365A      2.177235  
     366A      2.200588   367A      2.216894   368A      2.225749  
     369A      2.228888   370A      2.236969   371A      2.287543  
     372A      2.292518   373A      2.299266   374A      2.330669  
     375A      2.336034   376A      2.347106   377A      2.354422  
     378A      2.368524   379A      2.385709   380A      2.415191  
     381A      2.430508   382A      2.451313   383A      2.476679  
     384A      2.517907   385A      2.524419   386A      2.537572  
     387A      2.556497   388A      2.598017   389A      2.611447  
     390A      2.663543   391A      2.665426   392A      2.673175  
     393A      2.695385   394A      2.695933   395A      2.712164  
     396A      2.745402   397A      2.752854   398A      2.787446  
     399A      2.857930   400A      2.946418   401A      2.977716  
     402A      3.024806   403A      3.036570   404A      3.100573  
     405A      3.135948   406A      3.168012   407A      3.353759  
     408A      3.400469   409A      3.407158   410A      3.407919  
     411A      3.452591   412A      3.466688   413A      3.475281  
     414A      3.502215   415A      3.525190   416A      3.534066  
     417A      3.567067   418A      3.610564   419A      3.687784  
     420A      3.702685   421A      3.811033   422A      3.848912  
     423A      3.874704   424A      4.129967   425A      4.479518  
     426A      4.608317   427A      4.645322   428A      4.680122  
     429A      4.717197   430A      4.740458   431A      4.741844  
     432A      4.797160   433A      4.838951   434A      4.844663  
     435A      4.897423  

    Final Occupation by Irrep:
              A 
    DOCC [    62 ]

  @DF-RKS Final Energy: -1188.20639790237465

   => Energetics <=

    Nuclear Repulsion Energy =           1176.8467616920861474
    One-Electron Energy =               -3968.1279704887542721
    Two-Electron Energy =                1692.6331515587692138
    DFT Exchange-Correlation Energy =     -89.5449335507556157
    Empirical Dispersion Energy =          -0.0134071137201686
    VV10 Nonlocal Energy =                  0.0000000000000000
    Total Energy =                      -1188.2063979023746469

Computation Completed


Properties will be evaluated at  -0.359232,  -0.026757,  -0.236738 [a0]

Properties computed using the SCF density matrix

  Nuclear Dipole Moment: [e a0]
     X:    25.3988      Y:    -1.3417      Z:    -3.6623

  Electronic Dipole Moment: [e a0]
     X:   -22.7138      Y:     1.0033      Z:     3.3986

  Dipole Moment: [e a0]
     X:     2.6850      Y:    -0.3384      Z:    -0.2637     Total:     2.7191

  Dipole Moment: [D]
     X:     6.8246      Y:    -0.8602      Z:    -0.6702     Total:     6.9111


*** tstop() called on cpu-spot-dy-c5n2xlarge-1 at Tue Jun 22 20:16:11 2021
Module time:
	user time   =     687.13 seconds =      11.45 minutes
	system time =       7.36 seconds =       0.12 minutes
	total time  =         92 seconds =       1.53 minutes
Total time:
	user time   =    2233.32 seconds =      37.22 minutes
	system time =      23.30 seconds =       0.39 minutes
	total time  =        302 seconds =       5.03 minutes

       N-Body: Complex Energy (fragments = (1,), basis = (1,): -1188.20639790237465)

   ==> N-Body: Now computing 2-body complexes <==


       N-Body: Computing complex (1/1) with fragments (1, 2) in the basis of fragments (1, 2).


*** tstart() called on cpu-spot-dy-c5n2xlarge-1
*** at Tue Jun 22 20:16:11 2021

   => Loading Basis Set <=

    Name: AUG-CC-PVDZ
    Role: ORBITAL
    Keyword: BASIS
    atoms 1             entry N          line   214 file /fsx/users/francis/anaconda3/envs/poltype-dev/share/psi4/basis/aug-cc-pvdz.gbs 
    atoms 2-3, 6-12, 14 entry C          line   178 file /fsx/users/francis/anaconda3/envs/poltype-dev/share/psi4/basis/aug-cc-pvdz.gbs 
    atoms 4-5           entry F          line   286 file /fsx/users/francis/anaconda3/envs/poltype-dev/share/psi4/basis/aug-cc-pvdz.gbs 
    atoms 13            entry S          line   698 file /fsx/users/francis/anaconda3/envs/poltype-dev/share/psi4/basis/aug-cc-pvdz.gbs 
    atoms 15-16, 24     entry O          line   250 file /fsx/users/francis/anaconda3/envs/poltype-dev/share/psi4/basis/aug-cc-pvdz.gbs 
    atoms 17-23, 25-26  entry H          line    36 file /fsx/users/francis/anaconda3/envs/poltype-dev/share/psi4/basis/aug-cc-pvdz.gbs 


         ---------------------------------------------------------
                                   SCF
               by Justin Turney, Rob Parrish, Andy Simmonett
                          and Daniel G. A. Smith
                              RKS Reference
                        8 Threads,  15258 MiB Core
         ---------------------------------------------------------

  ==> Geometry <==

    Molecular point group: c1
    Full point group: C1

    Geometry (in Angstrom), charge = 0, multiplicity = 1:

       Center              X                  Y                   Z               Mass       
    ------------   -----------------  -----------------  -----------------  -----------------
         N           -1.020978806530    -1.500108397155     0.349829022912    14.003074004430
         C           -2.298087806530    -1.227927397155     0.764416022912    12.000000000000
         C           -2.751804806530     0.265144602845     0.650954022912    12.000000000000
[...]
         H            5.048359193470     0.777185602845    -0.480628977088     1.007825032230
         H            4.515855193470    -0.497600397155     0.655753022912     1.007825032230
         H            5.851621193470    -0.820558397155    -0.488044977088     1.007825032230
         O            2.592057793470     0.136652402845     1.706378622912    15.994914619570
         H            2.177629793470     0.332212402845     0.864335622912     1.007825032230
         H            2.522653793470     0.913215402845     2.262070622912     1.007825032230

  Running in c1 symmetry.

  Rotational constants: A =      0.02997  B =      0.00755  C =      0.00695 [cm^-1]
  Rotational constants: A =    898.37138  B =    226.47547  C =    208.22917 [MHz]
  Nuclear repulsion = 1348.773277392708906

  Charge       = 0
  Multiplicity = 1
  Electrons    = 134
  Nalpha       = 67
  Nbeta        = 67

  ==> Algorithm <==

  SCF Algorithm Type is DF.
  DIIS enabled.
  MOM disabled.
  Fractional occupation disabled.
  Guess Type is SAD.
  Energy threshold   = 1.00e-06
  Density threshold  = 1.00e-06
  Integral threshold = 0.00e+00

  ==> Primary Basis <==

  Basis Set: AUG-CC-PVDZ
    Blend: AUG-CC-PVDZ
    Number of shells: 200
    Number of basis function: 476
    Number of Cartesian functions: 510
    Spherical Harmonics?: true
    Max angular momentum: 2

  ==> DFT Potential <==

   => Composite Functional: WB97X-D <= 

    wB97X-D Hyb-GGA Exchange-Correlation Functional

    J.-D. Chai and M. Head-Gordon, Phys. Chem. Chem. Phys. 10, 6615 (2008)

    Deriv               =              1
    GGA                 =           TRUE
    Meta                =          FALSE

    Exchange Hybrid     =           TRUE
    MP2 Hybrid          =          FALSE

   => Exchange-Correlation Functionals <=

    1.0000   wB97D range-separated functional

   => Exact (HF) Exchange <=

    0.7780            HF,LR [omega = 0.2000]
    0.2220               HF 

   => Molecular Quadrature <=

    Radial Scheme          =       TREUTLER
    Pruning Scheme         =           FLAT
    Nuclear Scheme         =       TREUTLER

    BS radius alpha        =              1
    Pruning alpha          =              1
    Radial Points          =             75
    Spherical Points       =            302
    Total Points           =         588900
    Total Blocks           =           4374
    Max Points             =            256
    Max Functions          =            425

   => WB97X-D: Empirical Dispersion <=

    Chai and Head-Gordon Dispersion Correction
    Chai, J.-D.; Head-Gordon, M. (2010), J. Chem. Phys., 132: 6615-6620

        s6 =       1.000000

   => Loading Basis Set <=

    Name: (AUG-CC-PVDZ AUX)
    Role: JKFIT
    Keyword: DF_BASIS_SCF
    atoms 1             entry N          line   212 file /fsx/users/francis/anaconda3/envs/poltype-dev/share/psi4/basis/aug-cc-pvdz-jkfit.gbs 
    atoms 2-3, 6-12, 14 entry C          line   154 file /fsx/users/francis/anaconda3/envs/poltype-dev/share/psi4/basis/aug-cc-pvdz-jkfit.gbs 
    atoms 4-5           entry F          line   328 file /fsx/users/francis/anaconda3/envs/poltype-dev/share/psi4/basis/aug-cc-pvdz-jkfit.gbs 
    atoms 13            entry S          line   690 file /fsx/users/francis/anaconda3/envs/poltype-dev/share/psi4/basis/aug-cc-pvdz-jkfit.gbs 
    atoms 15-16, 24     entry O          line   270 file /fsx/users/francis/anaconda3/envs/poltype-dev/share/psi4/basis/aug-cc-pvdz-jkfit.gbs 
    atoms 17-23, 25-26  entry H          line    70 file /fsx/users/francis/anaconda3/envs/poltype-dev/share/psi4/basis/aug-cc-pvdz-jkfit.gbs 

  ==> Pre-Iterations <==

   -------------------------------------------------------
    Irrep   Nso     Nmo     Nalpha   Nbeta   Ndocc  Nsocc
   -------------------------------------------------------
     A        476     476       0       0       0       0
   -------------------------------------------------------
    Total     476     476      67      67      67       0
   -------------------------------------------------------

  ==> Integral Setup <==

  ==> DiskDFJK: Density-Fitted J/K Matrices <==

    J tasked:                  Yes
    K tasked:                  Yes
    wK tasked:                 Yes
    Omega:               2.000E-01
    OpenMP threads:              8
    Integrals threads:           8
    Memory [MiB]:             5753
    Algorithm:                Core
    Integral Cache:           NONE
    Schwarz Cutoff:          1E-12
    Fitting Condition:       1E-10

   => Auxiliary Basis Set <=

  Basis Set: (AUG-CC-PVDZ AUX)
    Blend: AUG-CC-PVDZ-JKFIT
    Number of shells: 596
    Number of basis function: 1792
    Number of Cartesian functions: 2081
    Spherical Harmonics?: true
    Max angular momentum: 3

  Cached 100.0% of DFT collocation blocks in 5.557 [GiB].

  Minimum eigenvalue in the overlap matrix is 1.2220930757E-06.
  Using Symmetric Orthogonalization.

  SCF Guess: Superposition of Atomic Densities via on-the-fly atomic UHF.

  ==> Iterations <==

                           Total Energy        Delta E     RMS |[F,P]|

   @DF-RKS iter SAD: -1263.69331699585268   -1.26369e+03   0.00000e+00 
   @DF-RKS iter   1: -1263.98643117792653   -2.93114e-01   2.52717e-03 DIIS
   @DF-RKS iter   2: -1263.96541099931596    2.10202e-02   2.77558e-03 DIIS
   @DF-RKS iter   3: -1264.59462239758022   -6.29211e-01   5.55180e-04 DIIS
   @DF-RKS iter   4: -1264.62109501298437   -2.64726e-02   1.85067e-04 DIIS
   @DF-RKS iter   5: -1264.62432880421943   -3.23379e-03   5.23633e-05 DIIS
   @DF-RKS iter   6: -1264.62465408427033   -3.25280e-04   1.58297e-05 DIIS
   @DF-RKS iter   7: -1264.62469799281212   -4.39085e-05   5.27602e-06 DIIS
   @DF-RKS iter   8: -1264.62470872713379   -1.07343e-05   2.26160e-06 DIIS
   @DF-RKS iter   9: -1264.62471168830530   -2.96117e-06   1.37845e-06 DIIS
   @DF-RKS iter  10: -1264.62471217744110   -4.89136e-07   4.84565e-07 DIIS
  Energy and wave function converged.


  ==> Post-Iterations <==

    Orbital Energies [Eh]
    ---------------------

    Doubly Occupied:                                                      

       1A    -89.070293     2A    -24.876984     3A    -24.876118  
       4A    -19.307123     5A    -19.289745     6A    -19.282115  
       7A    -14.539418     8A    -10.511961     9A    -10.457442  
      10A    -10.439383    11A    -10.412931    12A    -10.384384  
      13A    -10.361316    14A    -10.358766    15A    -10.354665  
      16A    -10.350457    17A    -10.335268    18A     -8.087650  
      19A     -6.037542    20A     -6.033315    21A     -6.026509  
      22A     -1.387850    23A     -1.331917    24A     -1.193293  
      25A     -1.184762    26A     -1.129895    27A     -1.097260  
      28A     -1.007948    29A     -0.941163    30A     -0.905714  
      31A     -0.893580    32A     -0.868307    33A     -0.793741  
      34A     -0.770103    35A     -0.755921    36A     -0.742297  
      37A     -0.699833    38A     -0.683243    39A     -0.671952  
      40A     -0.652017    41A     -0.645276    42A     -0.632247  
      43A     -0.595101    44A     -0.583562    45A     -0.569484  
      46A     -0.566013    47A     -0.561829    48A     -0.557273  
      49A     -0.554737    50A     -0.538388    51A     -0.528434  
      52A     -0.525542    53A     -0.521287    54A     -0.515169  
      55A     -0.503298    56A     -0.500455    57A     -0.487042  
      58A     -0.479580    59A     -0.477360    60A     -0.441941  
      61A     -0.425487    62A     -0.412945    63A     -0.400544  
      64A     -0.376068    65A     -0.374634    66A     -0.345359  
      67A     -0.328708  

    Virtual:                                                              

      68A     -0.061124    69A      0.001673    70A      0.023606  
      71A      0.032616    72A      0.033847    73A      0.040961  
      74A      0.043133    75A      0.055322    76A      0.057680  
      77A      0.063208    78A      0.067867    79A      0.076530  
      80A      0.079034    81A      0.087178    82A      0.090671  
      83A      0.092083    84A      0.101974    85A      0.107605  
      86A      0.111834    87A      0.112732    88A      0.116242  
      89A      0.119516    90A      0.125438    91A      0.129284  
      92A      0.133069    93A      0.134506    94A      0.139917  
      95A      0.146172    96A      0.149826    97A      0.153316  
      98A      0.155856    99A      0.158813   100A      0.162071  
     101A      0.165903   102A      0.169957   103A      0.171761  
     104A      0.173690   105A      0.178566   106A      0.182143  
     107A      0.187822   108A      0.192372   109A      0.196998  
     110A      0.202093   111A      0.206913   112A      0.208654  
     113A      0.212522   114A      0.213480   115A      0.218449  
     116A      0.220241   117A      0.225209   118A      0.229637  
     119A      0.232199   120A      0.234824   121A      0.239456  
     122A      0.244000   123A      0.250266   124A      0.252428  
     125A      0.256032   126A      0.260021   127A      0.263502  
     128A      0.266892   129A      0.268699   130A      0.274478  
     131A      0.275957   132A      0.280653   133A      0.285345  
     134A      0.287736   135A      0.291982   136A      0.294508  
     137A      0.299017   138A      0.307745   139A      0.311168  
     140A      0.317540   141A      0.320667   142A      0.321360  
     143A      0.325473   144A      0.327755   145A      0.334485  
     146A      0.337462   147A      0.339805   148A      0.344465  
     149A      0.348599   150A      0.353763   151A      0.357533  
     152A      0.362651   153A      0.365871   154A      0.370718  
     155A      0.374547   156A      0.377468   157A      0.383001  
     158A      0.385589   159A      0.389075   160A      0.391258  
     161A      0.396112   162A      0.396710   163A      0.401562  
     164A      0.406346   165A      0.411915   166A      0.419454  
     167A      0.421851   168A      0.426825   169A      0.431291  
     170A      0.432204   171A      0.442780   172A      0.447699  
     173A      0.452615   174A      0.457159   175A      0.465019  
     176A      0.470377   177A      0.475393   178A      0.480866  
     179A      0.481875   180A      0.486313   181A      0.495919  
     182A      0.500160   183A      0.509752   184A      0.512682  
     185A      0.518348   186A      0.523934   187A      0.529030  
     188A      0.532900   189A      0.539495   190A      0.548258  
     191A      0.551541   192A      0.554112   193A      0.558569  
     194A      0.565282   195A      0.568719   196A      0.580773  
     197A      0.583856   198A      0.586745   199A      0.595868  
     200A      0.596996   201A      0.603845   202A      0.612707  
     203A      0.620265   204A      0.621185   205A      0.627002  
     206A      0.634827   207A      0.639156   208A      0.642026  
     209A      0.644228   210A      0.651901   211A      0.652387  
     212A      0.657354   213A      0.664357   214A      0.667433  
     215A      0.673388   216A      0.678137   217A      0.681347  
     218A      0.689114   219A      0.693084   220A      0.698075  
     221A      0.704662   222A      0.712220   223A      0.715502  
     224A      0.719815   225A      0.722205   226A      0.727252  
     227A      0.729364   228A      0.735882   229A      0.745790  
     230A      0.752461   231A      0.760572   232A      0.766656  
     233A      0.768917   234A      0.778387   235A      0.786074  
     236A      0.791587   237A      0.799390   238A      0.802183  
     239A      0.808361   240A      0.814270   241A      0.822046  
     242A      0.824669   243A      0.829924   244A      0.837744  
     245A      0.847228   246A      0.858301   247A      0.869452  
     248A      0.869772   249A      0.876242   250A      0.881220  
     251A      0.890415   252A      0.905285   253A      0.915755  
     254A      0.921684   255A      0.931633   256A      0.939307  
     257A      0.951336   258A      0.964835   259A      0.967964  
     260A      0.972902   261A      0.974105   262A      0.983089  
     263A      0.992306   264A      0.999515   265A      1.010266  
     266A      1.012721   267A      1.037492   268A      1.045284  
     269A      1.055080   270A      1.060726   271A      1.071327  
     272A      1.076804   273A      1.082037   274A      1.090207  
     275A      1.098387   276A      1.103622   277A      1.116652  
     278A      1.121372   279A      1.130239   280A      1.137061  
     281A      1.149344   282A      1.160962   283A      1.170166  
     284A      1.176091   285A      1.183884   286A      1.199183  
     287A      1.211307   288A      1.215695   289A      1.228849  
     290A      1.232568   291A      1.237988   292A      1.243061  
     293A      1.246662   294A      1.261700   295A      1.272157  
     296A      1.278952   297A      1.291668   298A      1.296565  
     299A      1.302368   300A      1.303731   301A      1.314932  
     302A      1.331953   303A      1.340333   304A      1.344641  
     305A      1.366850   306A      1.371459   307A      1.381692  
     308A      1.386476   309A      1.401337   310A      1.407225  
     311A      1.420423   312A      1.423420   313A      1.434867  
     314A      1.438552   315A      1.459919   316A      1.471466  
     317A      1.475222   318A      1.485419   319A      1.498972  
     320A      1.507645   321A      1.517434   322A      1.529351  
     323A      1.536694   324A      1.545114   325A      1.553471  
     326A      1.555408   327A      1.560530   328A      1.567544  
     329A      1.575462   330A      1.591383   331A      1.602737  
     332A      1.608176   333A      1.616708   334A      1.622860  
     335A      1.628092   336A      1.635343   337A      1.642637  
     338A      1.648065   339A      1.656731   340A      1.666952  
     341A      1.676101   342A      1.683378   343A      1.687707  
     344A      1.694430   345A      1.709758   346A      1.720376  
     347A      1.732024   348A      1.733908   349A      1.750148  
     350A      1.760988   351A      1.772204   352A      1.782107  
     353A      1.787037   354A      1.800902   355A      1.819258  
     356A      1.823101   357A      1.830888   358A      1.845591  
     359A      1.852620   360A      1.867265   361A      1.873857  
     362A      1.886835   363A      1.890617   364A      1.899627  
     365A      1.908301   366A      1.920450   367A      1.932949  
     368A      1.940851   369A      1.944937   370A      1.956587  
     371A      1.960661   372A      1.973901   373A      1.976210  
     374A      1.983821   375A      1.997096   376A      2.007783  
     377A      2.024809   378A      2.028661   379A      2.037103  
     380A      2.052500   381A      2.067683   382A      2.069448  
     383A      2.073946   384A      2.088042   385A      2.095170  
     386A      2.098212   387A      2.105969   388A      2.111930  
     389A      2.126986   390A      2.141375   391A      2.149180  
     392A      2.166901   393A      2.178485   394A      2.191662  
     395A      2.193858   396A      2.212756   397A      2.221931  
     398A      2.234455   399A      2.239905   400A      2.246827  
     401A      2.266283   402A      2.293496   403A      2.300093  
     404A      2.304139   405A      2.332003   406A      2.352970  
     407A      2.358757   408A      2.372421   409A      2.382532  
     410A      2.387743   411A      2.414989   412A      2.424861  
     413A      2.425571   414A      2.453775   415A      2.474102  
     416A      2.508633   417A      2.525520   418A      2.535665  
     419A      2.557350   420A      2.563817   421A      2.609021  
     422A      2.627490   423A      2.642396   424A      2.670394  
     425A      2.681592   426A      2.697452   427A      2.711536  
     428A      2.729491   429A      2.736585   430A      2.750585  
     431A      2.765055   432A      2.802070   433A      2.871155  
     434A      2.939435   435A      2.967325   436A      2.984552  
     437A      3.033296   438A      3.048221   439A      3.066911  
     440A      3.139237   441A      3.161713   442A      3.195093  
     443A      3.363848   444A      3.403427   445A      3.409459  
     446A      3.431395   447A      3.453046   448A      3.471680  
     449A      3.480176   450A      3.506261   451A      3.519073  
     452A      3.525062   453A      3.541354   454A      3.569430  
     455A      3.575549   456A      3.602220   457A      3.618766  
     458A      3.704118   459A      3.729138   460A      3.816343  
     461A      3.861061   462A      3.897655   463A      3.900723  
     464A      4.117513   465A      4.250988   466A      4.555729  
     467A      4.606294   468A      4.645590   469A      4.679571  
     470A      4.715922   471A      4.738742   472A      4.740373  
     473A      4.808461   474A      4.838812   475A      4.848208  
     476A      4.895263  

    Final Occupation by Irrep:
              A 
    DOCC [    67 ]

  @DF-RKS Final Energy: -1264.62471217744110

   => Energetics <=

    Nuclear Repulsion Energy =           1348.7732773927089056
    One-Electron Energy =               -4416.1282868854459593
    Two-Electron Energy =                1898.7966741988423109
    DFT Exchange-Correlation Energy =     -96.0487447548697730
    Empirical Dispersion Energy =          -0.0176321286768634
    VV10 Nonlocal Energy =                  0.0000000000000000
    Total Energy =                      -1264.6247121774413245

Computation Completed


Properties will be evaluated at  -0.000000,  -0.000000,  -0.000000 [a0]

Properties computed using the SCF density matrix

  Nuclear Dipole Moment: [e a0]
     X:    28.9225      Y:    -0.2402      Z:    -1.3130

  Electronic Dipole Moment: [e a0]
     X:   -26.6342      Y:     0.3812      Z:     0.9002

  Dipole Moment: [e a0]
     X:     2.2883      Y:     0.1410      Z:    -0.4128     Total:     2.3295

  Dipole Moment: [D]
     X:     5.8162      Y:     0.3585      Z:    -1.0493     Total:     5.9209


*** tstop() called on cpu-spot-dy-c5n2xlarge-1 at Tue Jun 22 20:18:17 2021
Module time:
	user time   =     929.01 seconds =      15.48 minutes
	system time =       9.38 seconds =       0.16 minutes
	total time  =        126 seconds =       2.10 minutes
Total time:
	user time   =    3162.38 seconds =      52.71 minutes
	system time =      32.68 seconds =       0.54 minutes
	total time  =        428 seconds =       7.13 minutes

       N-Body: Complex Energy (fragments = (1, 2), basis = (1, 2): -1264.62471217744110)

   ==> N-Body: Counterpoise Corrected (CP) energies <==

   n-Body     Total Energy [Eh]       I.E. [kcal/mol]      Delta [kcal/mol]
        1    -1264.625866485699        0.000000000000        0.000000000000
        2    -1264.623026623681        1.782040320618        1.782040320618

   => Loading Basis Set <=

    Name: DEF2-SVP
    Role: ORBITAL
    Keyword: BASIS
    atoms 1             entry N          line   110 file /fsx/users/francis/anaconda3/envs/poltype-dev/share/psi4/basis/def2-svp.gbs 
    atoms 2-3, 6-12, 14 entry C          line    90 file /fsx/users/francis/anaconda3/envs/poltype-dev/share/psi4/basis/def2-svp.gbs 
    atoms 4-5           entry F          line   150 file /fsx/users/francis/anaconda3/envs/poltype-dev/share/psi4/basis/def2-svp.gbs 
    atoms 13            entry S          line   328 file /fsx/users/francis/anaconda3/envs/poltype-dev/share/psi4/basis/def2-svp.gbs 
    atoms 15-16, 24     entry O          line   130 file /fsx/users/francis/anaconda3/envs/poltype-dev/share/psi4/basis/def2-svp.gbs 
    atoms 17-23, 25-26  entry H          line    15 file /fsx/users/francis/anaconda3/envs/poltype-dev/share/psi4/basis/def2-svp.gbs 

CP Energy =   0.002840
    Psi4 stopped on: Tuesday, 22 June 2021 08:18PM
    Psi4 wall time for execution: 0:07:08.66

*** Psi4 exiting successfully. Buy a developer a beer!
