
    -----------------------------------------------------------------------
          Psi4: An Open-Source Ab Initio Electronic Structure Package
                               Psi4 1.3.2 release

                         Git: Rev {HEAD} ecbda83 


    R. M. Parrish, L. A. Burns, D. G. A. Smith, A. C. Simmonett,
    A. E. DePrince III, E. G. Hohenstein, U. Bozkaya, A. Yu. Sokolov,
    R. Di Remigio, R. M. Richard, J. F. Gonthier, A. M. James,
    H. R. McAlexander, A. Kumar, M. Saitow, X. Wang, B. P. Pritchard,
    P. Verma, H. F. Schaefer III, K. Patkowski, R. A. King, E. F. Valeev,
    F. A. Evangelista, J. M. Turney, T. D. Crawford, and C. D. Sherrill,
    J. Chem. Theory Comput. 13(7) pp 3185--3197 (2017).
    (doi: 10.1021/acs.jctc.7b00174)


                         Additional Contributions by
    P. Kraus, H. Kruse, M. H. Lechner, M. C. Schieber, R. A. Shaw,
    A. Alenaizan, R. Galvelis, Z. L. Glick, S. Lehtola, and J. P. Misiewicz

    -----------------------------------------------------------------------


    Psi4 started on: Tuesday, 22 June 2021 05:25PM

    Process ID: 28755
    Host:       cpu-spot-dy-c5n2xlarge-1
    PSIDATADIR: /fsx/users/francis/anaconda3/envs/poltype-dev/share/psi4
    Memory:     500.0 MiB
    Threads:    1
    
  ==> Input File <==

--------------------------------------------------------------------------
molecule { 
0 1
  N                 -0.8329220    -1.4316820     0.0850080
  C                 -2.1158040    -1.1558080     0.4843320
  C                 -2.4289050     0.3591460     0.7054530
  F                 -3.7555890     0.5940930     0.3944060
  F                 -2.2736550     0.6195540     2.0481740
  C                 -1.5199820     1.3601920    -0.0901970
  C                 -0.1640620     0.8757330    -0.4452730
  C                  0.7840340     1.7520530    -1.0162350
  C                  2.0710080     1.3050290    -1.3425650
  C                  2.4281110    -0.0524070    -1.1340790
  C                  1.4580920    -0.9467950    -0.6323440
  C                  0.1650140    -0.5031110    -0.3071010
  S                  4.0263480    -0.7214740    -1.4867930
  C                  4.9860630    -0.3162710    -0.0061480
  O                 -2.9120640    -2.0610510     0.6968400
  O                 -1.8772710     2.5202120    -0.2916330
  H                  2.7862340     2.0217350    -1.7452190
  H                  0.4932850     2.7892110    -1.1843840
  H                 -0.6535010    -2.4233640     0.0118350
  H                  1.7211530    -1.9936930    -0.4758020
  H                  5.0542680     0.7713970     0.0950450
  H                  4.4911080    -0.7384740     0.8741880
  H                  5.9893040    -0.7414380    -0.1033230
--
0 1
  O                 -2.5869800     0.1187010    -2.2863450
  H                 -3.3189780    -0.4968570    -2.3639350
  H                 -2.8648900     0.9493110    -2.6785950
}
memory 16GB
set_num_threads(8)
psi4_io.set_default_path("/scratch/Psi4-ligand")
set maxiter 500
set freeze_core True
set PROPERTIES_ORIGIN ["COM"]
e_dim= energy('wb97x-d/aug-cc-pVDZ',bsse_type='cp')

psi4.print_out('CP Energy = %10.6f' % (e_dim))
clean()
--------------------------------------------------------------------------

  Memory set to  14.901 GiB by Python driver.
  Threads set to 8 by Python driver.


   ===> N-Body Interaction Abacus <===
        BSSE Treatment:                     cp
        Number of 1-body computations:     4
        Number of 2-body computations:     1

   ==> N-Body: Now computing 1-body complexes <==


       N-Body: Computing complex (1/4) with fragments (2,) in the basis of fragments (2,).


*** tstart() called on cpu-spot-dy-c5n2xlarge-1
*** at Tue Jun 22 17:25:00 2021

   => Loading Basis Set <=

    Name: AUG-CC-PVDZ
    Role: ORBITAL
    Keyword: BASIS
    atoms 1   entry O          line   250 file /fsx/users/francis/anaconda3/envs/poltype-dev/share/psi4/basis/aug-cc-pvdz.gbs 
    atoms 2-3 entry H          line    36 file /fsx/users/francis/anaconda3/envs/poltype-dev/share/psi4/basis/aug-cc-pvdz.gbs 


         ---------------------------------------------------------
                                   SCF
               by Justin Turney, Rob Parrish, Andy Simmonett
                          and Daniel G. A. Smith
                              RKS Reference
                        8 Threads,  15258 MiB Core
         ---------------------------------------------------------

  ==> Geometry <==

    Molecular point group: c1
    Full point group: C1

    Geometry (in Angstrom), charge = 0, multiplicity = 1:

       Center              X                  Y                   Z               Mass       
    ------------   -----------------  -----------------  -----------------  -----------------
         O           -2.457896392730     0.036497741830    -1.968108675836    15.994914619570
         H           -3.189894392730    -0.579060258170    -2.045698675836     1.007825032230
         H           -2.735806392730     0.867107741830    -2.360358675836     1.007825032230

  Running in c1 symmetry.

  Rotational constants: A =     13.53279  B =      0.09057  C =      0.09001 [cm^-1]
  Rotational constants: A = 405702.75650  B =   2715.19066  C =   2698.38536 [MHz]
  Nuclear repulsion =    9.164891593603709

  Charge       = 0
  Multiplicity = 1
  Electrons    = 10
  Nalpha       = 5
  Nbeta        = 5

  ==> Algorithm <==

  SCF Algorithm Type is DF.
  DIIS enabled.
  MOM disabled.
  Fractional occupation disabled.
  Guess Type is SAD.
  Energy threshold   = 1.00e-06
  Density threshold  = 1.00e-06
  Integral threshold = 0.00e+00

  ==> Primary Basis <==

  Basis Set: AUG-CC-PVDZ
    Blend: AUG-CC-PVDZ
    Number of shells: 19
    Number of basis function: 41
    Number of Cartesian functions: 43
    Spherical Harmonics?: true
    Max angular momentum: 2

  ==> DFT Potential <==

   => Composite Functional: WB97X-D <= 

    wB97X-D Hyb-GGA Exchange-Correlation Functional

    J.-D. Chai and M. Head-Gordon, Phys. Chem. Chem. Phys. 10, 6615 (2008)

    Deriv               =              1
    GGA                 =           TRUE
    Meta                =          FALSE

    Exchange Hybrid     =           TRUE
    MP2 Hybrid          =          FALSE

   => Exchange-Correlation Functionals <=

    1.0000   wB97D range-separated functional

   => Exact (HF) Exchange <=

    0.7780            HF,LR [omega = 0.2000]
    0.2220               HF 

   => Molecular Quadrature <=

    Radial Scheme          =       TREUTLER
    Pruning Scheme         =           FLAT
    Nuclear Scheme         =       TREUTLER

    BS radius alpha        =              1
    Pruning alpha          =              1
    Radial Points          =             75
    Spherical Points       =            302
    Total Points           =          67950
    Total Blocks           =            567
    Max Points             =            256
    Max Functions          =             41

   => WB97X-D: Empirical Dispersion <=

    Chai and Head-Gordon Dispersion Correction
    Chai, J.-D.; Head-Gordon, M. (2010), J. Chem. Phys., 132: 6615-6620

        s6 =       1.000000

   => Loading Basis Set <=

    Name: (AUG-CC-PVDZ AUX)
    Role: JKFIT
    Keyword: DF_BASIS_SCF
    atoms 1   entry O          line   270 file /fsx/users/francis/anaconda3/envs/poltype-dev/share/psi4/basis/aug-cc-pvdz-jkfit.gbs 
    atoms 2-3 entry H          line    70 file /fsx/users/francis/anaconda3/envs/poltype-dev/share/psi4/basis/aug-cc-pvdz-jkfit.gbs 

  ==> Pre-Iterations <==

   -------------------------------------------------------
    Irrep   Nso     Nmo     Nalpha   Nbeta   Ndocc  Nsocc
   -------------------------------------------------------
     A         41      41       0       0       0       0
   -------------------------------------------------------
    Total      41      41       5       5       5       0
   -------------------------------------------------------

  ==> Integral Setup <==

  ==> DiskDFJK: Density-Fitted J/K Matrices <==

    J tasked:                  Yes
    K tasked:                  Yes
    wK tasked:                 Yes
    Omega:               2.000E-01
    OpenMP threads:              8
    Integrals threads:           8
    Memory [MiB]:            11363
    Algorithm:                Core
    Integral Cache:           NONE
    Schwarz Cutoff:          1E-12
    Fitting Condition:       1E-10

   => Auxiliary Basis Set <=

  Basis Set: (AUG-CC-PVDZ AUX)
    Blend: AUG-CC-PVDZ-JKFIT
    Number of shells: 52
    Number of basis function: 150
    Number of Cartesian functions: 171
    Spherical Harmonics?: true
    Max angular momentum: 3

  Cached 100.0% of DFT collocation blocks in 0.079 [GiB].

  Minimum eigenvalue in the overlap matrix is 2.8082563666E-03.
  Using Symmetric Orthogonalization.

  SCF Guess: Superposition of Atomic Densities via on-the-fly atomic UHF.

  ==> Iterations <==

                           Total Energy        Delta E     RMS |[F,P]|

   @DF-RKS iter SAD:   -75.95321017021578   -7.59532e+01   0.00000e+00 
   @DF-RKS iter   1:   -76.27484131910769   -3.21631e-01   1.51010e-02 DIIS
   @DF-RKS iter   2:   -76.22800118221738    4.68401e-02   1.78014e-02 DIIS
   @DF-RKS iter   3:   -76.41941811538534   -1.91417e-01   3.63289e-04 DIIS
   @DF-RKS iter   4:   -76.41956276375244   -1.44648e-04   9.79730e-05 DIIS
   @DF-RKS iter   5:   -76.41957059817874   -7.83443e-06   1.86377e-05 DIIS
   @DF-RKS iter   6:   -76.41957092163632   -3.23458e-07   2.00451e-06 DIIS
   @DF-RKS iter   7:   -76.41957093203628   -1.04000e-08   2.52178e-07 DIIS
  Energy and wave function converged.


  ==> Post-Iterations <==

    Orbital Energies [Eh]
    ---------------------

    Doubly Occupied:                                                      

       1A    -19.278507     2A     -1.119752     3A     -0.631221  
       4A     -0.479253     5A     -0.406793  

    Virtual:                                                              

       6A      0.033978     7A      0.060980     8A      0.162056  
       9A      0.190838    10A      0.199602    11A      0.217819  
      12A      0.255234    13A      0.302250    14A      0.362190  
      15A      0.377385    16A      0.407480    17A      0.518555  
      18A      0.579937    19A      0.603767    20A      0.715999  
      21A      0.810971    22A      0.980942    23A      0.992734  
      24A      1.034567    25A      1.172285    26A      1.288666  
      27A      1.314878    28A      1.397561    29A      1.818333  
      30A      1.849014    31A      1.921660    32A      2.227744  
      33A      2.229295    34A      2.375882    35A      2.497143  
      36A      2.714499    37A      3.372907    38A      3.384970  
      39A      3.402363    40A      3.734012    41A      3.969760  

    Final Occupation by Irrep:
              A 
    DOCC [     5 ]

  @DF-RKS Final Energy:   -76.41957093203628

   => Energetics <=

    Nuclear Repulsion Energy =              9.1648915936037092
    One-Electron Energy =                -122.9438363745066738
    Two-Electron Energy =                  43.8319368268981506
    DFT Exchange-Correlation Energy =      -6.4725325559258078
    Empirical Dispersion Energy =          -0.0000304221056586
    VV10 Nonlocal Energy =                  0.0000000000000000
    Total Energy =                        -76.4195709320362795

Computation Completed


Properties will be evaluated at  -4.751543,   0.091711,  -3.768869 [a0]

Properties computed using the SCF density matrix

  Nuclear Dipole Moment: [e a0]
     X:    -0.8405      Y:     0.1790      Z:    -0.3910

  Electronic Dipole Moment: [e a0]
     X:     0.1952      Y:    -0.0416      Z:     0.0908

  Dipole Moment: [e a0]
     X:    -0.6453      Y:     0.1374      Z:    -0.3002     Total:     0.7249

  Dipole Moment: [D]
     X:    -1.6402      Y:     0.3492      Z:    -0.7631     Total:     1.8425


*** tstop() called on cpu-spot-dy-c5n2xlarge-1 at Tue Jun 22 17:25:01 2021
Module time:
	user time   =       8.23 seconds =       0.14 minutes
	system time =       0.21 seconds =       0.00 minutes
	total time  =          1 seconds =       0.02 minutes
Total time:
	user time   =       8.23 seconds =       0.14 minutes
	system time =       0.21 seconds =       0.00 minutes
	total time  =          1 seconds =       0.02 minutes

       N-Body: Complex Energy (fragments = (2,), basis = (2,):   -76.41957093203628)

       N-Body: Computing complex (2/4) with fragments (2,) in the basis of fragments (1, 2).


*** tstart() called on cpu-spot-dy-c5n2xlarge-1
*** at Tue Jun 22 17:25:01 2021

   => Loading Basis Set <=

    Name: AUG-CC-PVDZ
    Role: ORBITAL
    Keyword: BASIS
    atoms 1             entry N          line   214 file /fsx/users/francis/anaconda3/envs/poltype-dev/share/psi4/basis/aug-cc-pvdz.gbs 
    atoms 2-3, 6-12, 14 entry C          line   178 file /fsx/users/francis/anaconda3/envs/poltype-dev/share/psi4/basis/aug-cc-pvdz.gbs 
    atoms 4-5           entry F          line   286 file /fsx/users/francis/anaconda3/envs/poltype-dev/share/psi4/basis/aug-cc-pvdz.gbs 
    atoms 13            entry S          line   698 file /fsx/users/francis/anaconda3/envs/poltype-dev/share/psi4/basis/aug-cc-pvdz.gbs 
    atoms 15-16, 24     entry O          line   250 file /fsx/users/francis/anaconda3/envs/poltype-dev/share/psi4/basis/aug-cc-pvdz.gbs 
    atoms 17-23, 25-26  entry H          line    36 file /fsx/users/francis/anaconda3/envs/poltype-dev/share/psi4/basis/aug-cc-pvdz.gbs 


         ---------------------------------------------------------
                                   SCF
               by Justin Turney, Rob Parrish, Andy Simmonett
                          and Daniel G. A. Smith
                              RKS Reference
                        8 Threads,  15258 MiB Core
         ---------------------------------------------------------

  ==> Geometry <==

    Molecular point group: c1
    Full point group: C1

    Geometry (in Angstrom), charge = 0, multiplicity = 1:

       Center              X                  Y                   Z               Mass       
    ------------   -----------------  -----------------  -----------------  -----------------
      Gh(N)          -0.703838392730    -1.513885258170     0.403244324164    14.003074004430
      Gh(C)          -1.986720392730    -1.238011258170     0.802568324164    12.000000000000
      Gh(C)          -2.299821392730     0.276942741830     1.023689324164    12.000000000000
      Gh(F)          -3.626505392730     0.511889741830     0.712642324164    18.998403162730
      Gh(F)          -2.144571392730     0.537350741830     2.366410324164    18.998403162730
      Gh(C)          -1.390898392730     1.277988741830     0.228039324164    12.000000000000
      Gh(C)          -0.034978392730     0.793529741830    -0.127036675836    12.000000000000
      Gh(C)           0.913117607270     1.669849741830    -0.697998675836    12.000000000000
      Gh(C)           2.200091607270     1.222825741830    -1.024328675836    12.000000000000
      Gh(C)           2.557194607270    -0.134610258170    -0.815842675836    12.000000000000
      Gh(C)           1.587175607270    -1.028998258170    -0.314107675836    12.000000000000
      Gh(C)           0.294097607270    -0.585314258170     0.011135324164    12.000000000000
      Gh(S)           4.155431607270    -0.803677258170    -1.168556675836    31.972071174400
      Gh(C)           5.115146607270    -0.398474258170     0.312088324164    12.000000000000
      Gh(O)          -2.782980392730    -2.143254258170     1.015076324164    15.994914619570
      Gh(O)          -1.748187392730     2.438008741830     0.026603324164    15.994914619570
      Gh(H)           2.915317607270     1.939531741830    -1.426982675836     1.007825032230
      Gh(H)           0.622368607270     2.707007741830    -0.866147675836     1.007825032230
      Gh(H)          -0.524417392730    -2.505567258170     0.330071324164     1.007825032230
      Gh(H)           1.850236607270    -2.075896258170    -0.157565675836     1.007825032230
      Gh(H)           5.183351607270     0.689193741830     0.413281324164     1.007825032230
      Gh(H)           4.620191607270    -0.820677258170     1.192424324164     1.007825032230
      Gh(H)           6.118387607270    -0.823641258170     0.214913324164     1.007825032230
         O           -2.457896392730     0.036497741830    -1.968108675836    15.994914619570
         H           -3.189894392730    -0.579060258170    -2.045698675836     1.007825032230
         H           -2.735806392730     0.867107741830    -2.360358675836     1.007825032230

  Running in c1 symmetry.

  Rotational constants: A =      0.02833  B =      0.00764  C =      0.00711 [cm^-1]
  Rotational constants: A =    849.33615  B =    228.97911  C =    213.17304 [MHz]
  Nuclear repulsion =    9.164891593603709

  Charge       = 0
  Multiplicity = 1
  Electrons    = 10
  Nalpha       = 5
  Nbeta        = 5

  ==> Algorithm <==

  SCF Algorithm Type is DF.
  DIIS enabled.
  MOM disabled.
  Fractional occupation disabled.
  Guess Type is SAD.
  Energy threshold   = 1.00e-06
  Density threshold  = 1.00e-06
  Integral threshold = 0.00e+00

  ==> Primary Basis <==

  Basis Set: AUG-CC-PVDZ
    Blend: AUG-CC-PVDZ
    Number of shells: 200
    Number of basis function: 476
    Number of Cartesian functions: 510
    Spherical Harmonics?: true
    Max angular momentum: 2

  ==> DFT Potential <==

   => Composite Functional: WB97X-D <= 

    wB97X-D Hyb-GGA Exchange-Correlation Functional

    J.-D. Chai and M. Head-Gordon, Phys. Chem. Chem. Phys. 10, 6615 (2008)

    Deriv               =              1
    GGA                 =           TRUE
    Meta                =          FALSE

    Exchange Hybrid     =           TRUE
    MP2 Hybrid          =          FALSE

   => Exchange-Correlation Functionals <=

    1.0000   wB97D range-separated functional

   => Exact (HF) Exchange <=

    0.7780            HF,LR [omega = 0.2000]
    0.2220               HF 

   => Molecular Quadrature <=

    Radial Scheme          =       TREUTLER
    Pruning Scheme         =           FLAT
    Nuclear Scheme         =       TREUTLER

    BS radius alpha        =              1
    Pruning alpha          =              1
    Radial Points          =             75
    Spherical Points       =            302
    Total Points           =         588900
    Total Blocks           =           4352
    Max Points             =            256
    Max Functions          =            435

   => WB97X-D: Empirical Dispersion <=

    Chai and Head-Gordon Dispersion Correction
    Chai, J.-D.; Head-Gordon, M. (2010), J. Chem. Phys., 132: 6615-6620

        s6 =       1.000000

   => Loading Basis Set <=

    Name: (AUG-CC-PVDZ AUX)
    Role: JKFIT
    Keyword: DF_BASIS_SCF
    atoms 1             entry N          line   212 file /fsx/users/francis/anaconda3/envs/poltype-dev/share/psi4/basis/aug-cc-pvdz-jkfit.gbs 
    atoms 2-3, 6-12, 14 entry C          line   154 file /fsx/users/francis/anaconda3/envs/poltype-dev/share/psi4/basis/aug-cc-pvdz-jkfit.gbs 
    atoms 4-5           entry F          line   328 file /fsx/users/francis/anaconda3/envs/poltype-dev/share/psi4/basis/aug-cc-pvdz-jkfit.gbs 
    atoms 13            entry S          line   690 file /fsx/users/francis/anaconda3/envs/poltype-dev/share/psi4/basis/aug-cc-pvdz-jkfit.gbs 
    atoms 15-16, 24     entry O          line   270 file /fsx/users/francis/anaconda3/envs/poltype-dev/share/psi4/basis/aug-cc-pvdz-jkfit.gbs 
    atoms 17-23, 25-26  entry H          line    70 file /fsx/users/francis/anaconda3/envs/poltype-dev/share/psi4/basis/aug-cc-pvdz-jkfit.gbs 

  ==> Pre-Iterations <==

   -------------------------------------------------------
    Irrep   Nso     Nmo     Nalpha   Nbeta   Ndocc  Nsocc
   -------------------------------------------------------
     A        476     476       0       0       0       0
   -------------------------------------------------------
    Total     476     476       5       5       5       0
   -------------------------------------------------------

  ==> Integral Setup <==

  ==> DiskDFJK: Density-Fitted J/K Matrices <==

    J tasked:                  Yes
    K tasked:                  Yes
    wK tasked:                 Yes
    Omega:               2.000E-01
    OpenMP threads:              8
    Integrals threads:           8
    Memory [MiB]:             5848
    Algorithm:                Core
    Integral Cache:           NONE
    Schwarz Cutoff:          1E-12
    Fitting Condition:       1E-10

   => Auxiliary Basis Set <=

  Basis Set: (AUG-CC-PVDZ AUX)
    Blend: AUG-CC-PVDZ-JKFIT
    Number of shells: 596
    Number of basis function: 1792
    Number of Cartesian functions: 2081
    Spherical Harmonics?: true
    Max angular momentum: 3

  Cached 100.0% of DFT collocation blocks in 5.464 [GiB].

  Minimum eigenvalue in the overlap matrix is 1.4480162967E-06.
  Using Symmetric Orthogonalization.

  SCF Guess: Superposition of Atomic Densities via on-the-fly atomic UHF.

  ==> Iterations <==

                           Total Energy        Delta E     RMS |[F,P]|

   @DF-RKS iter SAD:   -75.95321866734695   -7.59532e+01   0.00000e+00 
   @DF-RKS iter   1:   -74.43749191291073    1.51573e+00   1.21351e-03 DIIS
   @DF-RKS iter   2:   -75.73661707206311   -1.29913e+00   2.81607e-03 DIIS
   @DF-RKS iter   3:   -76.20056742380523   -4.63950e-01   1.54068e-03 DIIS
   @DF-RKS iter   4:   -76.38968297874062   -1.89116e-01   5.45448e-04 DIIS
   @DF-RKS iter   5:   -76.41987648348162   -3.01935e-02   3.94620e-05 DIIS
   @DF-RKS iter   6:   -76.42009007908602   -2.13596e-04   1.31144e-05 DIIS
   @DF-RKS iter   7:   -76.42011435745579   -2.42784e-05   9.22427e-07 DIIS
   @DF-RKS iter   8:   -76.42011457628165   -2.18826e-07   1.42408e-07 DIIS
  Energy and wave function converged.


  ==> Post-Iterations <==

    Orbital Energies [Eh]
    ---------------------

    Doubly Occupied:                                                      

       1A    -19.278467     2A     -1.119575     3A     -0.631000  
       4A     -0.479023     5A     -0.406520  

    Virtual:                                                              

       6A      0.022258     7A      0.030844     8A      0.038177  
       9A      0.046633    10A      0.051714    11A      0.054976  
      12A      0.060674    13A      0.069938    14A      0.074666  
      15A      0.077063    16A      0.082264    17A      0.089009  
      18A      0.094772    19A      0.098183    20A      0.103141  
      21A      0.109446    22A      0.110144    23A      0.119794  
      24A      0.121829    25A      0.124217    26A      0.134510  
      27A      0.138917    28A      0.142350    29A      0.144735  
      30A      0.148795    31A      0.153508    32A      0.159725  
      33A      0.161545    34A      0.165620    35A      0.170767  
      36A      0.175403    37A      0.178054    38A      0.180425  
      39A      0.183879    40A      0.189835    41A      0.196564  
      42A      0.198382    43A      0.205315    44A      0.209306  
      45A      0.212598    46A      0.214161    47A      0.218379  
      48A      0.225807    49A      0.228565    50A      0.231689  
      51A      0.236169    52A      0.240662    53A      0.243171  
      54A      0.248069    55A      0.254212    56A      0.260583  
      57A      0.264098    58A      0.267827    59A      0.278058  
      60A      0.284322    61A      0.288986    62A      0.291629  
      63A      0.297195    64A      0.298558    65A      0.309419  
      66A      0.311124    67A      0.321573    68A      0.326898  
      69A      0.331415    70A      0.338410    71A      0.339664  
      72A      0.348072    73A      0.352148    74A      0.357681  
      75A      0.361065    76A      0.368728    77A      0.372555  
      78A      0.379082    79A      0.384108    80A      0.388651  
      81A      0.390807    82A      0.391445    83A      0.405621  
      84A      0.408765    85A      0.410851    86A      0.418412  
      87A      0.422257    88A      0.433255    89A      0.437005  
      90A      0.442366    91A      0.445816    92A      0.454396  
      93A      0.458403    94A      0.464092    95A      0.467686  
      96A      0.471571    97A      0.471767    98A      0.480367  
      99A      0.482972   100A      0.487142   101A      0.502336  
     102A      0.505718   103A      0.508138   104A      0.515130  
     105A      0.519397   106A      0.521074   107A      0.530752  
     108A      0.537225   109A      0.540365   110A      0.543856  
     111A      0.547548   112A      0.557798   113A      0.561480  
     114A      0.570925   115A      0.572703   116A      0.579043  
     117A      0.584726   118A      0.588572   119A      0.597401  
     120A      0.602023   121A      0.607823   122A      0.617290  
     123A      0.620561   124A      0.626134   125A      0.632798  
     126A      0.635296   127A      0.642707   128A      0.649537  
     129A      0.656873   130A      0.659843   131A      0.669529  
     132A      0.672680   133A      0.682679   134A      0.684586  
     135A      0.693041   136A      0.697465   137A      0.700970  
     138A      0.708456   139A      0.720288   140A      0.724871  
     141A      0.732243   142A      0.735397   143A      0.745727  
     144A      0.754223   145A      0.756106   146A      0.768507  
     147A      0.772617   148A      0.779304   149A      0.787117  
     150A      0.797922   151A      0.805955   152A      0.810970  
     153A      0.816759   154A      0.820156   155A      0.829879  
     156A      0.833693   157A      0.834629   158A      0.844110  
     159A      0.847679   160A      0.859107   161A      0.862786  
     162A      0.864135   163A      0.868901   164A      0.879572  
     165A      0.882955   166A      0.892317   167A      0.900057  
     168A      0.902102   169A      0.911570   170A      0.919561  
     171A      0.924719   172A      0.930357   173A      0.946976  
     174A      0.951533   175A      0.961960   176A      0.968353  
     177A      0.976473   178A      0.979994   179A      0.988949  
     180A      0.989836   181A      1.001824   182A      1.003608  
     183A      1.011137   184A      1.018635   185A      1.023748  
     186A      1.033647   187A      1.037714   188A      1.054849  
     189A      1.059933   190A      1.063149   191A      1.078868  
     192A      1.084542   193A      1.091603   194A      1.105673  
     195A      1.110821   196A      1.126544   197A      1.143849  
     198A      1.147401   199A      1.159148   200A      1.169766  
     201A      1.172182   202A      1.181218   203A      1.185448  
     204A      1.196176   205A      1.205275   206A      1.216678  
     207A      1.224502   208A      1.228603   209A      1.245090  
     210A      1.250152   211A      1.257288   212A      1.274154  
     213A      1.280998   214A      1.294033   215A      1.315825  
     216A      1.328390   217A      1.331922   218A      1.334915  
     219A      1.342973   220A      1.351714   221A      1.365233  
     222A      1.377624   223A      1.391606   224A      1.399297  
     225A      1.416498   226A      1.426659   227A      1.435285  
     228A      1.455001   229A      1.460829   230A      1.470901  
     231A      1.480975   232A      1.481913   233A      1.492663  
     234A      1.504247   235A      1.524231   236A      1.537223  
     237A      1.547740   238A      1.568106   239A      1.582546  
     240A      1.589094   241A      1.603389   242A      1.616809  
     243A      1.625222   244A      1.649959   245A      1.654248  
     246A      1.669720   247A      1.680271   248A      1.693564  
     249A      1.708438   250A      1.726328   251A      1.744611  
     252A      1.759197   253A      1.763005   254A      1.778737  
     255A      1.800755   256A      1.816102   257A      1.824188  
     258A      1.859600   259A      1.868824   260A      1.889521  
     261A      1.896810   262A      1.906775   263A      1.926044  
     264A      1.931905   265A      1.941873   266A      1.970988  
     267A      1.979218   268A      2.035595   269A      2.038516  
     270A      2.050644   271A      2.069968   272A      2.084028  
     273A      2.087373   274A      2.093725   275A      2.102575  
     276A      2.131247   277A      2.134014   278A      2.164697  
     279A      2.175860   280A      2.185099   281A      2.195028  
     282A      2.202250   283A      2.211314   284A      2.225824  
     285A      2.229418   286A      2.252813   287A      2.261635  
     288A      2.265212   289A      2.269003   290A      2.278850  
     291A      2.284513   292A      2.292657   293A      2.300333  
     294A      2.309952   295A      2.318741   296A      2.327335  
     297A      2.329226   298A      2.344026   299A      2.355885  
     300A      2.357939   301A      2.368912   302A      2.380705  
     303A      2.387940   304A      2.402645   305A      2.410485  
     306A      2.418168   307A      2.434791   308A      2.439676  
     309A      2.462331   310A      2.467244   311A      2.472901  
     312A      2.521580   313A      2.529572   314A      2.534955  
     315A      2.563433   316A      2.581501   317A      2.590128  
     318A      2.608174   319A      2.612655   320A      2.615654  
     321A      2.633721   322A      2.650921   323A      2.660349  
     324A      2.678804   325A      2.693502   326A      2.702432  
     327A      2.726058   328A      2.730045   329A      2.749760  
     330A      2.770454   331A      2.773437   332A      2.812782  
     333A      2.823991   334A      2.831900   335A      2.837028  
     336A      2.855337   337A      2.871032   338A      2.883300  
     339A      2.893759   340A      2.906139   341A      2.917826  
     342A      2.922812   343A      2.947066   344A      2.969020  
     345A      3.000392   346A      3.011782   347A      3.019846  
     348A      3.033136   349A      3.048769   350A      3.067290  
     351A      3.092046   352A      3.112875   353A      3.136668  
     354A      3.149885   355A      3.174593   356A      3.217961  
     357A      3.264965   358A      3.275120   359A      3.277640  
     360A      3.293660   361A      3.297310   362A      3.317958  
     363A      3.338745   364A      3.361973   365A      3.378487  
     366A      3.447123   367A      3.464324   368A      3.481321  
     369A      3.492034   370A      3.508277   371A      3.512610  
     372A      3.541564   373A      3.560010   374A      3.590263  
     375A      3.625950   376A      3.658790   377A      3.689234  
     378A      3.716484   379A      3.733835   380A      3.785417  
     381A      3.786640   382A      3.824403   383A      3.846250  
     384A      3.871680   385A      3.910642   386A      3.924874  
     387A      3.990120   388A      4.036918   389A      4.054549  
     390A      4.077711   391A      4.125549   392A      4.152131  
     393A      4.240843   394A      4.256584   395A      4.336184  
     396A      4.369410   397A      4.387360   398A      4.419531  
     399A      4.486622   400A      4.538647   401A      4.544399  
     402A      4.601265   403A      4.636955   404A      4.699267  
     405A      4.756261   406A      4.788034   407A      4.838327  
     408A      4.908793   409A      4.967875   410A      5.016547  
     411A      5.045123   412A      5.061618   413A      5.068781  
     414A      5.072644   415A      5.080402   416A      5.095886  
     417A      5.107442   418A      5.117006   419A      5.151805  
     420A      5.220891   421A      5.282523   422A      5.303312  
     423A      5.325391   424A      5.387269   425A      5.403139  
     426A      5.463104   427A      5.473089   428A      5.539872  
     429A      5.634645   430A      5.857074   431A      5.986001  
     432A      6.057401   433A      6.067301   434A      6.161343  
     435A      6.174218   436A      6.302318   437A      6.468899  
     438A      6.514335   439A      6.819296   440A      6.845837  
     441A      6.873941   442A      6.883672   443A      6.897372  
     444A      6.927241   445A      6.949401   446A      6.966742  
     447A      6.973130   448A      6.991909   449A      7.051063  
     450A      7.055664   451A      7.137436   452A      7.861215  
     453A      7.949853   454A      7.990552   455A      8.146444  
     456A      8.184058   457A      8.237039   458A     18.014832  
     459A     18.423669   460A     18.569546   461A     18.623334  
     462A     18.791104   463A     18.909049   464A     19.182629  
     465A     19.388498   466A     19.625678   467A     20.639401  
     468A     20.764539   469A     20.887619   470A     21.435563  
     471A     25.490592   472A     33.552443   473A     33.564138  
     474A     43.021128   475A     43.025069   476A    138.007801  

    Final Occupation by Irrep:
              A 
    DOCC [     5 ]

  @DF-RKS Final Energy:   -76.42011457628165

   => Energetics <=

    Nuclear Repulsion Energy =              9.1648915936037092
    One-Electron Energy =                -122.9467516513602163
    Two-Electron Energy =                  43.8346797021198711
    DFT Exchange-Correlation Energy =      -6.4729037985393596
    Empirical Dispersion Energy =          -0.0000304221056586
    VV10 Nonlocal Energy =                  0.0000000000000000
    Total Energy =                        -76.4201145762816481

Computation Completed


Properties will be evaluated at   0.000000,  -0.000000,   0.000000 [a0]

Properties computed using the SCF density matrix

  Nuclear Dipole Moment: [e a0]
     X:   -48.3560      Y:     1.0961      Z:   -38.0797

  Electronic Dipole Moment: [e a0]
     X:    47.7131      Y:    -0.9590      Z:    37.7816

  Dipole Moment: [e a0]
     X:    -0.6428      Y:     0.1371      Z:    -0.2982     Total:     0.7218

  Dipole Moment: [D]
     X:    -1.6339      Y:     0.3484      Z:    -0.7579     Total:     1.8345


*** tstop() called on cpu-spot-dy-c5n2xlarge-1 at Tue Jun 22 17:26:36 2021
Module time:
	user time   =     704.23 seconds =      11.74 minutes
	system time =       7.14 seconds =       0.12 minutes
	total time  =         95 seconds =       1.58 minutes
Total time:
	user time   =     712.53 seconds =      11.88 minutes
	system time =       7.35 seconds =       0.12 minutes
	total time  =         96 seconds =       1.60 minutes

       N-Body: Complex Energy (fragments = (2,), basis = (1, 2):   -76.42011457628165)

       N-Body: Computing complex (3/4) with fragments (1,) in the basis of fragments (1, 2).


*** tstart() called on cpu-spot-dy-c5n2xlarge-1
*** at Tue Jun 22 17:26:36 2021

   => Loading Basis Set <=

    Name: AUG-CC-PVDZ
    Role: ORBITAL
    Keyword: BASIS
    atoms 1             entry N          line   214 file /fsx/users/francis/anaconda3/envs/poltype-dev/share/psi4/basis/aug-cc-pvdz.gbs 
    atoms 2-3, 6-12, 14 entry C          line   178 file /fsx/users/francis/anaconda3/envs/poltype-dev/share/psi4/basis/aug-cc-pvdz.gbs 
    atoms 4-5           entry F          line   286 file /fsx/users/francis/anaconda3/envs/poltype-dev/share/psi4/basis/aug-cc-pvdz.gbs 
    atoms 13            entry S          line   698 file /fsx/users/francis/anaconda3/envs/poltype-dev/share/psi4/basis/aug-cc-pvdz.gbs 
    atoms 15-16, 24     entry O          line   250 file /fsx/users/francis/anaconda3/envs/poltype-dev/share/psi4/basis/aug-cc-pvdz.gbs 
    atoms 17-23, 25-26  entry H          line    36 file /fsx/users/francis/anaconda3/envs/poltype-dev/share/psi4/basis/aug-cc-pvdz.gbs 


         ---------------------------------------------------------
                                   SCF
               by Justin Turney, Rob Parrish, Andy Simmonett
                          and Daniel G. A. Smith
                              RKS Reference
                        8 Threads,  15258 MiB Core
         ---------------------------------------------------------

  ==> Geometry <==

    Molecular point group: c1
    Full point group: C1

    Geometry (in Angstrom), charge = 0, multiplicity = 1:

       Center              X                  Y                   Z               Mass       
    ------------   -----------------  -----------------  -----------------  -----------------
         N           -0.703838392730    -1.513885258170     0.403244324164    14.003074004430
         C           -1.986720392730    -1.238011258170     0.802568324164    12.000000000000
         C           -2.299821392730     0.276942741830     1.023689324164    12.000000000000
         F           -3.626505392730     0.511889741830     0.712642324164    18.998403162730
         F           -2.144571392730     0.537350741830     2.366410324164    18.998403162730
         C           -1.390898392730     1.277988741830     0.228039324164    12.000000000000
         C           -0.034978392730     0.793529741830    -0.127036675836    12.000000000000
         C            0.913117607270     1.669849741830    -0.697998675836    12.000000000000
         C            2.200091607270     1.222825741830    -1.024328675836    12.000000000000
         C            2.557194607270    -0.134610258170    -0.815842675836    12.000000000000
         C            1.587175607270    -1.028998258170    -0.314107675836    12.000000000000
         C            0.294097607270    -0.585314258170     0.011135324164    12.000000000000
         S            4.155431607270    -0.803677258170    -1.168556675836    31.972071174400
         C            5.115146607270    -0.398474258170     0.312088324164    12.000000000000
         O           -2.782980392730    -2.143254258170     1.015076324164    15.994914619570
         O           -1.748187392730     2.438008741830     0.026603324164    15.994914619570
         H            2.915317607270     1.939531741830    -1.426982675836     1.007825032230
         H            0.622368607270     2.707007741830    -0.866147675836     1.007825032230
         H           -0.524417392730    -2.505567258170     0.330071324164     1.007825032230
         H            1.850236607270    -2.075896258170    -0.157565675836     1.007825032230
         H            5.183351607270     0.689193741830     0.413281324164     1.007825032230
         H            4.620191607270    -0.820677258170     1.192424324164     1.007825032230
         H            6.118387607270    -0.823641258170     0.214913324164     1.007825032230
      Gh(O)          -2.457896392730     0.036497741830    -1.968108675836    15.994914619570
      Gh(H)          -3.189894392730    -0.579060258170    -2.045698675836     1.007825032230
      Gh(H)          -2.735806392730     0.867107741830    -2.360358675836     1.007825032230

  Running in c1 symmetry.

  Rotational constants: A =      0.02833  B =      0.00764  C =      0.00711 [cm^-1]
  Rotational constants: A =    849.33615  B =    228.97911  C =    213.17304 [MHz]
  Nuclear repulsion = 1179.275772546458029

  Charge       = 0
  Multiplicity = 1
  Electrons    = 124
  Nalpha       = 62
  Nbeta        = 62

  ==> Algorithm <==

  SCF Algorithm Type is DF.
  DIIS enabled.
  MOM disabled.
  Fractional occupation disabled.
  Guess Type is SAD.
  Energy threshold   = 1.00e-06
  Density threshold  = 1.00e-06
  Integral threshold = 0.00e+00

  ==> Primary Basis <==

  Basis Set: AUG-CC-PVDZ
    Blend: AUG-CC-PVDZ
    Number of shells: 200
    Number of basis function: 476
    Number of Cartesian functions: 510
    Spherical Harmonics?: true
    Max angular momentum: 2

  ==> DFT Potential <==

   => Composite Functional: WB97X-D <= 

    wB97X-D Hyb-GGA Exchange-Correlation Functional

    J.-D. Chai and M. Head-Gordon, Phys. Chem. Chem. Phys. 10, 6615 (2008)

    Deriv               =              1
    GGA                 =           TRUE
    Meta                =          FALSE

    Exchange Hybrid     =           TRUE
    MP2 Hybrid          =          FALSE

   => Exchange-Correlation Functionals <=

    1.0000   wB97D range-separated functional

   => Exact (HF) Exchange <=

    0.7780            HF,LR [omega = 0.2000]
    0.2220               HF 

   => Molecular Quadrature <=

    Radial Scheme          =       TREUTLER
    Pruning Scheme         =           FLAT
    Nuclear Scheme         =       TREUTLER

    BS radius alpha        =              1
    Pruning alpha          =              1
    Radial Points          =             75
    Spherical Points       =            302
    Total Points           =         588900
    Total Blocks           =           4352
    Max Points             =            256
    Max Functions          =            435

   => WB97X-D: Empirical Dispersion <=

    Chai and Head-Gordon Dispersion Correction
    Chai, J.-D.; Head-Gordon, M. (2010), J. Chem. Phys., 132: 6615-6620

        s6 =       1.000000

   => Loading Basis Set <=

    Name: (AUG-CC-PVDZ AUX)
    Role: JKFIT
    Keyword: DF_BASIS_SCF
    atoms 1             entry N          line   212 file /fsx/users/francis/anaconda3/envs/poltype-dev/share/psi4/basis/aug-cc-pvdz-jkfit.gbs 
    atoms 2-3, 6-12, 14 entry C          line   154 file /fsx/users/francis/anaconda3/envs/poltype-dev/share/psi4/basis/aug-cc-pvdz-jkfit.gbs 
    atoms 4-5           entry F          line   328 file /fsx/users/francis/anaconda3/envs/poltype-dev/share/psi4/basis/aug-cc-pvdz-jkfit.gbs 
    atoms 13            entry S          line   690 file /fsx/users/francis/anaconda3/envs/poltype-dev/share/psi4/basis/aug-cc-pvdz-jkfit.gbs 
    atoms 15-16, 24     entry O          line   270 file /fsx/users/francis/anaconda3/envs/poltype-dev/share/psi4/basis/aug-cc-pvdz-jkfit.gbs 
    atoms 17-23, 25-26  entry H          line    70 file /fsx/users/francis/anaconda3/envs/poltype-dev/share/psi4/basis/aug-cc-pvdz-jkfit.gbs 

  ==> Pre-Iterations <==

   -------------------------------------------------------
    Irrep   Nso     Nmo     Nalpha   Nbeta   Ndocc  Nsocc
   -------------------------------------------------------
     A        476     476       0       0       0       0
   -------------------------------------------------------
    Total     476     476      62      62      62       0
   -------------------------------------------------------

  ==> Integral Setup <==

  ==> DiskDFJK: Density-Fitted J/K Matrices <==

    J tasked:                  Yes
    K tasked:                  Yes
    wK tasked:                 Yes
    Omega:               2.000E-01
    OpenMP threads:              8
    Integrals threads:           8
    Memory [MiB]:             5848
    Algorithm:                Core
    Integral Cache:           NONE
    Schwarz Cutoff:          1E-12
    Fitting Condition:       1E-10

   => Auxiliary Basis Set <=

  Basis Set: (AUG-CC-PVDZ AUX)
    Blend: AUG-CC-PVDZ-JKFIT
    Number of shells: 596
    Number of basis function: 1792
    Number of Cartesian functions: 2081
    Spherical Harmonics?: true
    Max angular momentum: 3

  Cached 100.0% of DFT collocation blocks in 5.464 [GiB].

  Minimum eigenvalue in the overlap matrix is 1.4480162967E-06.
  Using Symmetric Orthogonalization.

  SCF Guess: Superposition of Atomic Densities via on-the-fly atomic UHF.

  ==> Iterations <==

                           Total Energy        Delta E     RMS |[F,P]|

   @DF-RKS iter SAD: -1187.38981379556412   -1.18739e+03   0.00000e+00 
   @DF-RKS iter   1: -1187.69199291677251   -3.02179e-01   2.21054e-03 DIIS
   @DF-RKS iter   2: -1187.69927978606984   -7.28687e-03   2.40448e-03 DIIS
   @DF-RKS iter   3: -1188.17441217572059   -4.75132e-01   5.68988e-04 DIIS
   @DF-RKS iter   4: -1188.20290519745777   -2.84930e-02   1.48270e-04 DIIS
   @DF-RKS iter   5: -1188.20509276031430   -2.18756e-03   4.24696e-05 DIIS
   @DF-RKS iter   6: -1188.20531209969886   -2.19339e-04   1.44837e-05 DIIS
   @DF-RKS iter   7: -1188.20533729433237   -2.51946e-05   4.41190e-06 DIIS
   @DF-RKS iter   8: -1188.20534169604207   -4.40171e-06   1.61909e-06 DIIS
   @DF-RKS iter   9: -1188.20534271135193   -1.01531e-06   1.06024e-06 DIIS
   @DF-RKS iter  10: -1188.20534294215827   -2.30806e-07   3.59882e-07 DIIS
  Energy and wave function converged.


  ==> Post-Iterations <==

    Orbital Energies [Eh]
    ---------------------

    Doubly Occupied:                                                      

       1A    -89.069698     2A    -24.880680     3A    -24.867536  
       4A    -19.304989     5A    -19.288530     6A    -14.536459  
       7A    -10.509381     8A    -10.455559     9A    -10.436865  
      10A    -10.407709    11A    -10.378812    12A    -10.356864  
      13A    -10.352369    14A    -10.350021    15A    -10.345595  
      16A    -10.343974    17A     -8.087192    18A     -6.037064  
      19A     -6.032944    20A     -6.025957    21A     -1.385530  
      22A     -1.326622    23A     -1.190193    24A     -1.179746  
      25A     -1.093677    26A     -1.000534    27A     -0.938549  
      28A     -0.904127    29A     -0.888666    30A     -0.866784  
      31A     -0.792448    32A     -0.765573    33A     -0.752159  
      34A     -0.739951    35A     -0.696072    36A     -0.677393  
      37A     -0.668485    38A     -0.643281    39A     -0.628996  
      40A     -0.591278    41A     -0.580113    42A     -0.569084  
      43A     -0.562662    44A     -0.557723    45A     -0.555402  
      46A     -0.547875    47A     -0.539446    48A     -0.533416  
      49A     -0.527442    50A     -0.516202    51A     -0.512564  
      52A     -0.500683    53A     -0.494192    54A     -0.480674  
      55A     -0.474012    56A     -0.441126    57A     -0.420491  
      58A     -0.398149    59A     -0.372095    60A     -0.367816  
      61A     -0.340105    62A     -0.332771  

    Virtual:                                                              

      63A     -0.057463    64A      0.006653    65A      0.023872  
      66A      0.032271    67A      0.036019    68A      0.039606  
      69A      0.049133    70A      0.050684    71A      0.058001  
      72A      0.060382    73A      0.066046    74A      0.075808  
      75A      0.076225    76A      0.084485    77A      0.086917  
      78A      0.091563    79A      0.099884    80A      0.106786  
      81A      0.107651    82A      0.112178    83A      0.115213  
      84A      0.118215    85A      0.124663    86A      0.126132  
      87A      0.131825    88A      0.135136    89A      0.135729  
      90A      0.141314    91A      0.147115    92A      0.149519  
      93A      0.152654    94A      0.156373    95A      0.164942  
      96A      0.165920    97A      0.168230    98A      0.169501  
      99A      0.175668   100A      0.176143   101A      0.178882  
     102A      0.182809   103A      0.188399   104A      0.193219  
     105A      0.196787   106A      0.200769   107A      0.206182  
     108A      0.207719   109A      0.215896   110A      0.217952  
     111A      0.222205   112A      0.229334   113A      0.232016  
     114A      0.233762   115A      0.236860   116A      0.241690  
     117A      0.242988   118A      0.250461   119A      0.254893  
     120A      0.257131   121A      0.261848   122A      0.263250  
     123A      0.269885   124A      0.274520   125A      0.275998  
     126A      0.276359   127A      0.282478   128A      0.286365  
     129A      0.287421   130A      0.291525   131A      0.295506  
     132A      0.299283   133A      0.303441   134A      0.309288  
     135A      0.315084   136A      0.318013   137A      0.320704  
     138A      0.326366   139A      0.331859   140A      0.337411  
     141A      0.342898   142A      0.343989   143A      0.348313  
     144A      0.354563   145A      0.358616   146A      0.361558  
     147A      0.366969   148A      0.368804   149A      0.370921  
     150A      0.378743   151A      0.381480   152A      0.383438  
     153A      0.387260   154A      0.390925   155A      0.398116  
     156A      0.399649   157A      0.409482   158A      0.411838  
     159A      0.415708   160A      0.419052   161A      0.428211  
     162A      0.429748   163A      0.432960   164A      0.436802  
     165A      0.443801   166A      0.446508   167A      0.456808  
     168A      0.462214   169A      0.473236   170A      0.479302  
     171A      0.479803   172A      0.487985   173A      0.488677  
     174A      0.495720   175A      0.498971   176A      0.502077  
     177A      0.503894   178A      0.515215   179A      0.520273  
     180A      0.524028   181A      0.528267   182A      0.533575  
     183A      0.537119   184A      0.538067   185A      0.541439  
     186A      0.552641   187A      0.554599   188A      0.563299  
     189A      0.570835   190A      0.574148   191A      0.575437  
     192A      0.581262   193A      0.585445   194A      0.592817  
     195A      0.600701   196A      0.604857   197A      0.609162  
     198A      0.611490   199A      0.615124   200A      0.625180  
     201A      0.626732   202A      0.631536   203A      0.635506  
     204A      0.639654   205A      0.646107   206A      0.650547  
     207A      0.655954   208A      0.659339   209A      0.664470  
     210A      0.664950   211A      0.671899   212A      0.677998  
     213A      0.680704   214A      0.689952   215A      0.692478  
     216A      0.698457   217A      0.702189   218A      0.706465  
     219A      0.708962   220A      0.716837   221A      0.727830  
     222A      0.733516   223A      0.741980   224A      0.750305  
     225A      0.754685   226A      0.761097   227A      0.763180  
     228A      0.771977   229A      0.778063   230A      0.791654  
     231A      0.797480   232A      0.800265   233A      0.803517  
     234A      0.811588   235A      0.818020   236A      0.821242  
     237A      0.828179   238A      0.832151   239A      0.841147  
     240A      0.843266   241A      0.850277   242A      0.854634  
     243A      0.859113   244A      0.866809   245A      0.876936  
     246A      0.880999   247A      0.895240   248A      0.903201  
     249A      0.907778   250A      0.924081   251A      0.928429  
     252A      0.934368   253A      0.941791   254A      0.947831  
     255A      0.952956   256A      0.965212   257A      0.981643  
     258A      0.994409   259A      1.000131   260A      1.007440  
     261A      1.012618   262A      1.019969   263A      1.027491  
     264A      1.041424   265A      1.061116   266A      1.063940  
     267A      1.076057   268A      1.083735   269A      1.096976  
     270A      1.104449   271A      1.105858   272A      1.116946  
     273A      1.120607   274A      1.135484   275A      1.145856  
     276A      1.148631   277A      1.161876   278A      1.166649  
     279A      1.176003   280A      1.180469   281A      1.189532  
     282A      1.203960   283A      1.208206   284A      1.223211  
     285A      1.229704   286A      1.241045   287A      1.248307  
     288A      1.257935   289A      1.275158   290A      1.286305  
     291A      1.292017   292A      1.306691   293A      1.313449  
     294A      1.316777   295A      1.318158   296A      1.333911  
     297A      1.345044   298A      1.351270   299A      1.356611  
     300A      1.364613   301A      1.366588   302A      1.383261  
     303A      1.391126   304A      1.394329   305A      1.409267  
     306A      1.418895   307A      1.427938   308A      1.429573  
     309A      1.435597   310A      1.446703   311A      1.468754  
     312A      1.476812   313A      1.480308   314A      1.494110  
     315A      1.499211   316A      1.508314   317A      1.519557  
     318A      1.522770   319A      1.544233   320A      1.552614  
     321A      1.554381   322A      1.560162   323A      1.565912  
     324A      1.570743   325A      1.581853   326A      1.600172  
     327A      1.605648   328A      1.608533   329A      1.613883  
     330A      1.616233   331A      1.623486   332A      1.636060  
     333A      1.649890   334A      1.658371   335A      1.667024  
     336A      1.671952   337A      1.683106   338A      1.688777  
     339A      1.701551   340A      1.714251   341A      1.718486  
     342A      1.733963   343A      1.737425   344A      1.749207  
     345A      1.755179   346A      1.770023   347A      1.773683  
     348A      1.785032   349A      1.792042   350A      1.798185  
     351A      1.809102   352A      1.825383   353A      1.833294  
     354A      1.843701   355A      1.856368   356A      1.868132  
     357A      1.874890   358A      1.877743   359A      1.894134  
     360A      1.903516   361A      1.907073   362A      1.916447  
     363A      1.934959   364A      1.946876   365A      1.955183  
     366A      1.964852   367A      1.973123   368A      1.980171  
     369A      1.992934   370A      2.004815   371A      2.017061  
     372A      2.033601   373A      2.037426   374A      2.039074  
     375A      2.054385   376A      2.064463   377A      2.077216  
     378A      2.083164   379A      2.098984   380A      2.103150  
     381A      2.107970   382A      2.125864   383A      2.137410  
     384A      2.153601   385A      2.173792   386A      2.174905  
     387A      2.187859   388A      2.204913   389A      2.208640  
     390A      2.225575   391A      2.232121   392A      2.245073  
     393A      2.267197   394A      2.290856   395A      2.295514  
     396A      2.323840   397A      2.329041   398A      2.339475  
     399A      2.344577   400A      2.347817   401A      2.357182  
     402A      2.367766   403A      2.389729   404A      2.407610  
     405A      2.432099   406A      2.442663   407A      2.468046  
     408A      2.483168   409A      2.498077   410A      2.521522  
     411A      2.543827   412A      2.586198   413A      2.597597  
     414A      2.599882   415A      2.612222   416A      2.634822  
     417A      2.647178   418A      2.669386   419A      2.674860  
     420A      2.691853   421A      2.704086   422A      2.710569  
     423A      2.729739   424A      2.747091   425A      2.754500  
     426A      2.803960   427A      2.862310   428A      2.880833  
     429A      2.961697   430A      2.975302   431A      3.022688  
     432A      3.039316   433A      3.115437   434A      3.170888  
     435A      3.214761   436A      3.378787   437A      3.390361  
     438A      3.394539   439A      3.455276   440A      3.469322  
     441A      3.498109   442A      3.513402   443A      3.524726  
     444A      3.557899   445A      3.562351   446A      3.585022  
     447A      3.608048   448A      3.641250   449A      3.710862  
     450A      3.736988   451A      3.749140   452A      3.806061  
     453A      3.898937   454A      3.955732   455A      4.160065  
     456A      4.226248   457A      4.494548   458A      4.637926  
     459A      4.669035   460A      4.718701   461A      4.726559  
     462A      4.750179   463A      4.760893   464A      4.788711  
     465A      4.820478   466A      4.879443   467A      4.905065  
     468A      5.051558   469A      5.065524   470A      5.106115  
     471A      5.258385   472A      5.508518   473A      5.894544  
     474A      6.650894   475A      7.084723   476A     33.573293  

    Final Occupation by Irrep:
              A 
    DOCC [    62 ]

  @DF-RKS Final Energy: -1188.20534294215827

   => Energetics <=

    Nuclear Repulsion Energy =           1179.2757725464580290
    One-Electron Energy =               -3972.9809565687160102
    Two-Electron Energy =                1695.0501863194147063
    DFT Exchange-Correlation Energy =     -89.5368486657004041
    Empirical Dispersion Energy =          -0.0134965736146370
    VV10 Nonlocal Energy =                  0.0000000000000000
    Total Energy =                      -1188.2053429421584951

Computation Completed


Properties will be evaluated at   0.000000,  -0.000000,   0.000000 [a0]

Properties computed using the SCF density matrix

  Nuclear Dipole Moment: [e a0]
     X:    67.8088      Y:    -2.6655      Z:    30.7268

  Electronic Dipole Moment: [e a0]
     X:   -65.2693      Y:     2.2941      Z:   -30.9400

  Dipole Moment: [e a0]
     X:     2.5394      Y:    -0.3714      Z:    -0.2131     Total:     2.5753

  Dipole Moment: [D]
     X:     6.4546      Y:    -0.9440      Z:    -0.5417     Total:     6.5457


*** tstop() called on cpu-spot-dy-c5n2xlarge-1 at Tue Jun 22 17:28:40 2021
Module time:
	user time   =     915.31 seconds =      15.26 minutes
	system time =       9.03 seconds =       0.15 minutes
	total time  =        124 seconds =       2.07 minutes
Total time:
	user time   =    1627.88 seconds =      27.13 minutes
	system time =      16.38 seconds =       0.27 minutes
	total time  =        220 seconds =       3.67 minutes

       N-Body: Complex Energy (fragments = (1,), basis = (1, 2): -1188.20534294215827)

       N-Body: Computing complex (4/4) with fragments (1,) in the basis of fragments (1,).


*** tstart() called on cpu-spot-dy-c5n2xlarge-1
*** at Tue Jun 22 17:28:40 2021

   => Loading Basis Set <=

    Name: AUG-CC-PVDZ
    Role: ORBITAL
    Keyword: BASIS
    atoms 1             entry N          line   214 file /fsx/users/francis/anaconda3/envs/poltype-dev/share/psi4/basis/aug-cc-pvdz.gbs 
    atoms 2-3, 6-12, 14 entry C          line   178 file /fsx/users/francis/anaconda3/envs/poltype-dev/share/psi4/basis/aug-cc-pvdz.gbs 
    atoms 4-5           entry F          line   286 file /fsx/users/francis/anaconda3/envs/poltype-dev/share/psi4/basis/aug-cc-pvdz.gbs 
    atoms 13            entry S          line   698 file /fsx/users/francis/anaconda3/envs/poltype-dev/share/psi4/basis/aug-cc-pvdz.gbs 
    atoms 15-16         entry O          line   250 file /fsx/users/francis/anaconda3/envs/poltype-dev/share/psi4/basis/aug-cc-pvdz.gbs 
    atoms 17-23         entry H          line    36 file /fsx/users/francis/anaconda3/envs/poltype-dev/share/psi4/basis/aug-cc-pvdz.gbs 


         ---------------------------------------------------------
                                   SCF
               by Justin Turney, Rob Parrish, Andy Simmonett
                          and Daniel G. A. Smith
                              RKS Reference
                        8 Threads,  15258 MiB Core
         ---------------------------------------------------------

  ==> Geometry <==

    Molecular point group: c1
    Full point group: C1

    Geometry (in Angstrom), charge = 0, multiplicity = 1:

       Center              X                  Y                   Z               Mass       
    ------------   -----------------  -----------------  -----------------  -----------------
         N           -0.703838392730    -1.513885258170     0.403244324164    14.003074004430
         C           -1.986720392730    -1.238011258170     0.802568324164    12.000000000000
         C           -2.299821392730     0.276942741830     1.023689324164    12.000000000000
         F           -3.626505392730     0.511889741830     0.712642324164    18.998403162730
         F           -2.144571392730     0.537350741830     2.366410324164    18.998403162730
         C           -1.390898392730     1.277988741830     0.228039324164    12.000000000000
         C           -0.034978392730     0.793529741830    -0.127036675836    12.000000000000
         C            0.913117607270     1.669849741830    -0.697998675836    12.000000000000
         C            2.200091607270     1.222825741830    -1.024328675836    12.000000000000
         C            2.557194607270    -0.134610258170    -0.815842675836    12.000000000000
         C            1.587175607270    -1.028998258170    -0.314107675836    12.000000000000
         C            0.294097607270    -0.585314258170     0.011135324164    12.000000000000
         S            4.155431607270    -0.803677258170    -1.168556675836    31.972071174400
         C            5.115146607270    -0.398474258170     0.312088324164    12.000000000000
         O           -2.782980392730    -2.143254258170     1.015076324164    15.994914619570
         O           -1.748187392730     2.438008741830     0.026603324164    15.994914619570
         H            2.915317607270     1.939531741830    -1.426982675836     1.007825032230
         H            0.622368607270     2.707007741830    -0.866147675836     1.007825032230
         H           -0.524417392730    -2.505567258170     0.330071324164     1.007825032230
         H            1.850236607270    -2.075896258170    -0.157565675836     1.007825032230
         H            5.183351607270     0.689193741830     0.413281324164     1.007825032230
         H            4.620191607270    -0.820677258170     1.192424324164     1.007825032230
         H            6.118387607270    -0.823641258170     0.214913324164     1.007825032230

  Running in c1 symmetry.

  Rotational constants: A =      0.03517  B =      0.00832  C =      0.00735 [cm^-1]
  Rotational constants: A =   1054.40448  B =    249.51016  C =    220.36066 [MHz]
  Nuclear repulsion = 1179.275772546458029

  Charge       = 0
  Multiplicity = 1
  Electrons    = 124
  Nalpha       = 62
  Nbeta        = 62

  ==> Algorithm <==

  SCF Algorithm Type is DF.
  DIIS enabled.
  MOM disabled.
  Fractional occupation disabled.
  Guess Type is SAD.
  Energy threshold   = 1.00e-06
  Density threshold  = 1.00e-06
  Integral threshold = 0.00e+00

  ==> Primary Basis <==

  Basis Set: AUG-CC-PVDZ
    Blend: AUG-CC-PVDZ
    Number of shells: 181
    Number of basis function: 435
    Number of Cartesian functions: 467
    Spherical Harmonics?: true
    Max angular momentum: 2

  ==> DFT Potential <==

   => Composite Functional: WB97X-D <= 

    wB97X-D Hyb-GGA Exchange-Correlation Functional

    J.-D. Chai and M. Head-Gordon, Phys. Chem. Chem. Phys. 10, 6615 (2008)

    Deriv               =              1
    GGA                 =           TRUE
    Meta                =          FALSE

    Exchange Hybrid     =           TRUE
    MP2 Hybrid          =          FALSE

   => Exchange-Correlation Functionals <=

    1.0000   wB97D range-separated functional

   => Exact (HF) Exchange <=

    0.7780            HF,LR [omega = 0.2000]
    0.2220               HF 

   => Molecular Quadrature <=

    Radial Scheme          =       TREUTLER
    Pruning Scheme         =           FLAT
    Nuclear Scheme         =       TREUTLER

    BS radius alpha        =              1
    Pruning alpha          =              1
    Radial Points          =             75
    Spherical Points       =            302
    Total Points           =         520950
    Total Blocks           =           3881
    Max Points             =            256
    Max Functions          =            395

   => WB97X-D: Empirical Dispersion <=

    Chai and Head-Gordon Dispersion Correction
    Chai, J.-D.; Head-Gordon, M. (2010), J. Chem. Phys., 132: 6615-6620

        s6 =       1.000000

   => Loading Basis Set <=

    Name: (AUG-CC-PVDZ AUX)
    Role: JKFIT
    Keyword: DF_BASIS_SCF
    atoms 1             entry N          line   212 file /fsx/users/francis/anaconda3/envs/poltype-dev/share/psi4/basis/aug-cc-pvdz-jkfit.gbs 
    atoms 2-3, 6-12, 14 entry C          line   154 file /fsx/users/francis/anaconda3/envs/poltype-dev/share/psi4/basis/aug-cc-pvdz-jkfit.gbs 
    atoms 4-5           entry F          line   328 file /fsx/users/francis/anaconda3/envs/poltype-dev/share/psi4/basis/aug-cc-pvdz-jkfit.gbs 
    atoms 13            entry S          line   690 file /fsx/users/francis/anaconda3/envs/poltype-dev/share/psi4/basis/aug-cc-pvdz-jkfit.gbs 
    atoms 15-16         entry O          line   270 file /fsx/users/francis/anaconda3/envs/poltype-dev/share/psi4/basis/aug-cc-pvdz-jkfit.gbs 
    atoms 17-23         entry H          line    70 file /fsx/users/francis/anaconda3/envs/poltype-dev/share/psi4/basis/aug-cc-pvdz-jkfit.gbs 

  ==> Pre-Iterations <==

   -------------------------------------------------------
    Irrep   Nso     Nmo     Nalpha   Nbeta   Ndocc  Nsocc
   -------------------------------------------------------
     A        435     435       0       0       0       0
   -------------------------------------------------------
    Total     435     435      62      62      62       0
   -------------------------------------------------------

  ==> Integral Setup <==

  ==> DiskDFJK: Density-Fitted J/K Matrices <==

    J tasked:                  Yes
    K tasked:                  Yes
    wK tasked:                 Yes
    Omega:               2.000E-01
    OpenMP threads:              8
    Integrals threads:           8
    Memory [MiB]:             6784
    Algorithm:                Core
    Integral Cache:           NONE
    Schwarz Cutoff:          1E-12
    Fitting Condition:       1E-10

   => Auxiliary Basis Set <=

  Basis Set: (AUG-CC-PVDZ AUX)
    Blend: AUG-CC-PVDZ-JKFIT
    Number of shells: 544
    Number of basis function: 1642
    Number of Cartesian functions: 1910
    Spherical Harmonics?: true
    Max angular momentum: 3

  Cached 100.0% of DFT collocation blocks in 4.551 [GiB].

  Minimum eigenvalue in the overlap matrix is 1.5480650925E-06.
  Using Symmetric Orthogonalization.

  SCF Guess: Superposition of Atomic Densities via on-the-fly atomic UHF.

  ==> Iterations <==

                           Total Energy        Delta E     RMS |[F,P]|

   @DF-RKS iter SAD: -1187.38996775688679   -1.18739e+03   0.00000e+00 
   @DF-RKS iter   1: -1187.69144196972911   -3.01474e-01   2.41779e-03 DIIS
   @DF-RKS iter   2: -1187.69864989306211   -7.20792e-03   2.63069e-03 DIIS
   @DF-RKS iter   3: -1188.17393090168775   -4.75281e-01   6.22165e-04 DIIS
   @DF-RKS iter   4: -1188.20239761161997   -2.84667e-02   1.62012e-04 DIIS
   @DF-RKS iter   5: -1188.20458006608555   -2.18245e-03   4.64543e-05 DIIS
   @DF-RKS iter   6: -1188.20479930010310   -2.19234e-04   1.58368e-05 DIIS
   @DF-RKS iter   7: -1188.20482445549419   -2.51554e-05   4.82215e-06 DIIS
   @DF-RKS iter   8: -1188.20482884954686   -4.39405e-06   1.77025e-06 DIIS
   @DF-RKS iter   9: -1188.20482986340903   -1.01386e-06   1.15904e-06 DIIS
   @DF-RKS iter  10: -1188.20483009379495   -2.30386e-07   3.93348e-07 DIIS
  Energy and wave function converged.


  ==> Post-Iterations <==

    Orbital Energies [Eh]
    ---------------------

    Doubly Occupied:                                                      

       1A    -89.069695     2A    -24.880627     3A    -24.867486  
       4A    -19.304898     5A    -19.288491     6A    -14.536511  
       7A    -10.509538     8A    -10.455625     9A    -10.436868  
      10A    -10.407779    11A    -10.378875    12A    -10.356934  
      13A    -10.352437    14A    -10.350077    15A    -10.345622  
      16A    -10.344024    17A     -8.087204    18A     -6.037074  
      19A     -6.032957    20A     -6.025969    21A     -1.385632  
      22A     -1.326720    23A     -1.190247    24A     -1.179857  
      25A     -1.093739    26A     -1.000603    27A     -0.938615  
      28A     -0.904198    29A     -0.888733    30A     -0.866846  
      31A     -0.792509    32A     -0.765637    33A     -0.752232  
      34A     -0.740011    35A     -0.696155    36A     -0.677469  
      37A     -0.668550    38A     -0.643343    39A     -0.629075  
      40A     -0.591354    41A     -0.580182    42A     -0.569144  
      43A     -0.562716    44A     -0.557783    45A     -0.555471  
      46A     -0.547944    47A     -0.539503    48A     -0.533458  
      49A     -0.527491    50A     -0.516272    51A     -0.512616  
      52A     -0.500746    53A     -0.494257    54A     -0.480736  
      55A     -0.474089    56A     -0.441169    57A     -0.420531  
      58A     -0.398213    59A     -0.372164    60A     -0.367856  
      61A     -0.340143    62A     -0.332802  

    Virtual:                                                              

      63A     -0.057539    64A      0.006634    65A      0.024088  
      66A      0.032491    67A      0.036307    68A      0.040646  
      69A      0.049284    70A      0.057528    71A      0.058894  
      72A      0.064331    73A      0.073216    74A      0.076344  
      75A      0.083113    76A      0.090135    77A      0.093024  
      78A      0.101082    79A      0.106591    80A      0.109871  
      81A      0.111688    82A      0.115611    83A      0.119787  
      84A      0.124367    85A      0.129654    86A      0.133405  
      87A      0.136245    88A      0.137863    89A      0.146336  
      90A      0.149595    91A      0.155298    92A      0.157819  
      93A      0.159816    94A      0.165560    95A      0.168834  
      96A      0.171706    97A      0.173544    98A      0.175331  
      99A      0.181338   100A      0.182748   101A      0.187765  
     102A      0.192226   103A      0.198472   104A      0.203506  
     105A      0.210080   106A      0.212756   107A      0.216536  
     108A      0.220835   109A      0.226077   110A      0.230490  
     111A      0.232670   112A      0.235451   113A      0.239449  
     114A      0.246517   115A      0.249067   116A      0.253067  
     117A      0.256147   118A      0.258401   119A      0.262983  
     120A      0.268736   121A      0.270971   122A      0.278876  
     123A      0.280799   124A      0.281544   125A      0.288086  
     126A      0.294935   127A      0.296869   128A      0.301065  
     129A      0.304763   130A      0.308123   131A      0.310869  
     132A      0.321901   133A      0.324724   134A      0.325614  
     135A      0.328963   136A      0.336600   137A      0.339549  
     138A      0.344656   139A      0.348340   140A      0.354443  
     141A      0.358933   142A      0.366449   143A      0.368651  
     144A      0.371651   145A      0.375497   146A      0.379934  
     147A      0.383235   148A      0.385026   149A      0.391042  
     150A      0.395172   151A      0.402264   152A      0.405970  
     153A      0.411460   154A      0.414120   155A      0.416614  
     156A      0.422016   157A      0.432332   158A      0.435114  
     159A      0.440074   160A      0.447394   161A      0.452272  
     162A      0.460881   163A      0.464350   164A      0.471698  
     165A      0.480750   166A      0.484498   167A      0.488211  
     168A      0.491084   169A      0.499807   170A      0.503415  
     171A      0.513355   172A      0.516336   173A      0.521699  
     174A      0.529146   175A      0.535672   176A      0.539333  
     177A      0.539954   178A      0.543330   179A      0.552104  
     180A      0.562807   181A      0.568117   182A      0.574041  
     183A      0.580835   184A      0.589382   185A      0.595771  
     186A      0.599354   187A      0.603037   188A      0.614362  
     189A      0.615825   190A      0.619754   191A      0.624584  
     192A      0.635608   193A      0.635976   194A      0.638275  
     195A      0.644982   196A      0.652429   197A      0.658000  
     198A      0.665029   199A      0.666567   200A      0.670913  
     201A      0.673555   202A      0.679817   203A      0.690434  
     204A      0.693929   205A      0.697770   206A      0.701752  
     207A      0.707968   208A      0.719986   209A      0.728324  
     210A      0.734477   211A      0.741991   212A      0.749471  
     213A      0.751227   214A      0.759438   215A      0.764538  
     216A      0.768590   217A      0.774917   218A      0.778869  
     219A      0.791013   220A      0.798696   221A      0.806544  
     222A      0.808165   223A      0.813871   224A      0.818863  
     225A      0.825508   226A      0.837841   227A      0.841234  
     228A      0.844354   229A      0.850855   230A      0.854452  
     231A      0.858825   232A      0.873617   233A      0.883783  
     234A      0.893461   235A      0.905078   236A      0.910092  
     237A      0.918747   238A      0.934281   239A      0.939877  
     240A      0.942462   241A      0.951952   242A      0.970034  
     243A      0.976133   244A      0.990573   245A      0.995014  
     246A      1.005915   247A      1.011754   248A      1.022891  
     249A      1.036012   250A      1.042153   251A      1.056583  
     252A      1.069102   253A      1.073208   254A      1.078849  
     255A      1.095838   256A      1.099733   257A      1.102044  
     258A      1.110342   259A      1.129867   260A      1.137468  
     261A      1.146674   262A      1.147446   263A      1.164488  
     264A      1.176027   265A      1.187695   266A      1.192417  
     267A      1.214497   268A      1.221412   269A      1.225832  
     270A      1.242214   271A      1.265017   272A      1.273787  
     273A      1.274821   274A      1.285162   275A      1.295352  
     276A      1.298573   277A      1.313880   278A      1.325168  
     279A      1.344831   280A      1.351528   281A      1.354032  
     282A      1.359277   283A      1.365685   284A      1.384047  
     285A      1.391606   286A      1.400362   287A      1.411152  
     288A      1.413542   289A      1.430855   290A      1.446555  
     291A      1.458848   292A      1.470127   293A      1.476579  
     294A      1.487979   295A      1.498774   296A      1.504444  
     297A      1.521001   298A      1.529778   299A      1.538645  
     300A      1.547542   301A      1.554952   302A      1.557284  
     303A      1.565226   304A      1.578019   305A      1.580163  
     306A      1.595093   307A      1.601547   308A      1.608819  
     309A      1.610041   310A      1.623605   311A      1.627887  
     312A      1.633556   313A      1.640419   314A      1.658653  
     315A      1.659490   316A      1.672858   317A      1.682530  
     318A      1.696682   319A      1.700407   320A      1.715737  
     321A      1.728997   322A      1.734152   323A      1.750411  
     324A      1.755550   325A      1.763194   326A      1.764968  
     327A      1.781230   328A      1.788255   329A      1.803799  
     330A      1.820001   331A      1.823008   332A      1.841481  
     333A      1.846252   334A      1.857769   335A      1.869204  
     336A      1.871877   337A      1.882706   338A      1.898237  
     339A      1.902728   340A      1.908757   341A      1.918873  
     342A      1.933982   343A      1.946536   344A      1.952932  
     345A      1.965956   346A      1.975515   347A      1.986521  
     348A      1.989722   349A      2.002176   350A      2.017311  
     351A      2.032537   352A      2.034103   353A      2.053110  
     354A      2.060471   355A      2.074498   356A      2.080159  
     357A      2.088152   358A      2.101579   359A      2.124650  
     360A      2.129248   361A      2.142645   362A      2.168288  
     363A      2.172629   364A      2.177034   365A      2.195091  
     366A      2.204816   367A      2.218779   368A      2.223557  
     369A      2.232143   370A      2.282418   371A      2.286457  
     372A      2.312298   373A      2.320872   374A      2.331625  
     375A      2.336898   376A      2.345444   377A      2.353496  
     378A      2.362952   379A      2.385755   380A      2.405089  
     381A      2.408609   382A      2.442141   383A      2.478000  
     384A      2.484210   385A      2.514362   386A      2.543950  
     387A      2.577336   388A      2.597594   389A      2.612912  
     390A      2.629782   391A      2.659678   392A      2.666752  
     393A      2.682563   394A      2.694432   395A      2.709288  
     396A      2.734257   397A      2.746722   398A      2.775865  
     399A      2.848650   400A      2.939492   401A      2.955384  
     402A      3.005374   403A      3.022554   404A      3.090215  
     405A      3.129270   406A      3.160142   407A      3.357436  
     408A      3.367586   409A      3.374189   410A      3.423142  
     411A      3.461030   412A      3.475192   413A      3.496657  
     414A      3.502656   415A      3.536090   416A      3.554376  
     417A      3.564954   418A      3.597610   419A      3.686253  
     420A      3.713132   421A      3.738539   422A      3.790803  
     423A      3.861477   424A      3.923810   425A      4.444429  
     426A      4.629291   427A      4.656729   428A      4.692442  
     429A      4.720852   430A      4.743465   431A      4.753958  
     432A      4.778584   433A      4.810862   434A      4.858615  
     435A      4.901340  

    Final Occupation by Irrep:
              A 
    DOCC [    62 ]

  @DF-RKS Final Energy: -1188.20483009379495

   => Energetics <=

    Nuclear Repulsion Energy =           1179.2757725464580290
    One-Electron Energy =               -3972.9736794676864520
    Two-Electron Energy =                1695.0431093667252753
    DFT Exchange-Correlation Energy =     -89.5365359656771602
    Empirical Dispersion Energy =          -0.0134965736146370
    VV10 Nonlocal Energy =                  0.0000000000000000
    Total Energy =                      -1188.2048300937949534

Computation Completed


Properties will be evaluated at   0.352149,  -0.006797,   0.279320 [a0]

Properties computed using the SCF density matrix

  Nuclear Dipole Moment: [e a0]
     X:    24.1424      Y:    -1.8227      Z:    -3.9089

  Electronic Dipole Moment: [e a0]
     X:   -21.6012      Y:     1.4510      Z:     3.6954

  Dipole Moment: [e a0]
     X:     2.5411      Y:    -0.3716      Z:    -0.2135     Total:     2.5770

  Dipole Moment: [D]
     X:     6.4589      Y:    -0.9446      Z:    -0.5427     Total:     6.5501


*** tstop() called on cpu-spot-dy-c5n2xlarge-1 at Tue Jun 22 17:30:13 2021
Module time:
	user time   =     694.51 seconds =      11.58 minutes
	system time =       7.39 seconds =       0.12 minutes
	total time  =         93 seconds =       1.55 minutes
Total time:
	user time   =    2322.44 seconds =      38.71 minutes
	system time =      23.77 seconds =       0.40 minutes
	total time  =        313 seconds =       5.22 minutes

       N-Body: Complex Energy (fragments = (1,), basis = (1,): -1188.20483009379495)

   ==> N-Body: Now computing 2-body complexes <==


       N-Body: Computing complex (1/1) with fragments (1, 2) in the basis of fragments (1, 2).


*** tstart() called on cpu-spot-dy-c5n2xlarge-1
*** at Tue Jun 22 17:30:13 2021

   => Loading Basis Set <=

    Name: AUG-CC-PVDZ
    Role: ORBITAL
    Keyword: BASIS
    atoms 1             entry N          line   214 file /fsx/users/francis/anaconda3/envs/poltype-dev/share/psi4/basis/aug-cc-pvdz.gbs 
    atoms 2-3, 6-12, 14 entry C          line   178 file /fsx/users/francis/anaconda3/envs/poltype-dev/share/psi4/basis/aug-cc-pvdz.gbs 
    atoms 4-5           entry F          line   286 file /fsx/users/francis/anaconda3/envs/poltype-dev/share/psi4/basis/aug-cc-pvdz.gbs 
    atoms 13            entry S          line   698 file /fsx/users/francis/anaconda3/envs/poltype-dev/share/psi4/basis/aug-cc-pvdz.gbs 
    atoms 15-16, 24     entry O          line   250 file /fsx/users/francis/anaconda3/envs/poltype-dev/share/psi4/basis/aug-cc-pvdz.gbs 
    atoms 17-23, 25-26  entry H          line    36 file /fsx/users/francis/anaconda3/envs/poltype-dev/share/psi4/basis/aug-cc-pvdz.gbs 


         ---------------------------------------------------------
                                   SCF
               by Justin Turney, Rob Parrish, Andy Simmonett
                          and Daniel G. A. Smith
                              RKS Reference
                        8 Threads,  15258 MiB Core
         ---------------------------------------------------------

  ==> Geometry <==

    Molecular point group: c1
    Full point group: C1

    Geometry (in Angstrom), charge = 0, multiplicity = 1:

       Center              X                  Y                   Z               Mass       
    ------------   -----------------  -----------------  -----------------  -----------------
         N           -0.703838392730    -1.513885258170     0.403244324164    14.003074004430
[...]
         H            5.183351607270     0.689193741830     0.413281324164     1.007825032230
         H            4.620191607270    -0.820677258170     1.192424324164     1.007825032230
         H            6.118387607270    -0.823641258170     0.214913324164     1.007825032230
         O           -2.457896392730     0.036497741830    -1.968108675836    15.994914619570
         H           -3.189894392730    -0.579060258170    -2.045698675836     1.007825032230
         H           -2.735806392730     0.867107741830    -2.360358675836     1.007825032230

  Running in c1 symmetry.

  Rotational constants: A =      0.02833  B =      0.00764  C =      0.00711 [cm^-1]
  Rotational constants: A =    849.33615  B =    228.97911  C =    213.17304 [MHz]
  Nuclear repulsion = 1350.509926712936931

  Charge       = 0
  Multiplicity = 1
  Electrons    = 134
  Nalpha       = 67
  Nbeta        = 67

  ==> Algorithm <==

  SCF Algorithm Type is DF.
  DIIS enabled.
  MOM disabled.
  Fractional occupation disabled.
  Guess Type is SAD.
  Energy threshold   = 1.00e-06
  Density threshold  = 1.00e-06
  Integral threshold = 0.00e+00

  ==> Primary Basis <==

  Basis Set: AUG-CC-PVDZ
    Blend: AUG-CC-PVDZ
    Number of shells: 200
    Number of basis function: 476
    Number of Cartesian functions: 510
    Spherical Harmonics?: true
    Max angular momentum: 2

  ==> DFT Potential <==

   => Composite Functional: WB97X-D <= 

    wB97X-D Hyb-GGA Exchange-Correlation Functional

    J.-D. Chai and M. Head-Gordon, Phys. Chem. Chem. Phys. 10, 6615 (2008)

    Deriv               =              1
    GGA                 =           TRUE
    Meta                =          FALSE

    Exchange Hybrid     =           TRUE
    MP2 Hybrid          =          FALSE

   => Exchange-Correlation Functionals <=

    1.0000   wB97D range-separated functional

   => Exact (HF) Exchange <=

    0.7780            HF,LR [omega = 0.2000]
    0.2220               HF 

   => Molecular Quadrature <=

    Radial Scheme          =       TREUTLER
    Pruning Scheme         =           FLAT
    Nuclear Scheme         =       TREUTLER

    BS radius alpha        =              1
    Pruning alpha          =              1
    Radial Points          =             75
    Spherical Points       =            302
    Total Points           =         588900
    Total Blocks           =           4352
    Max Points             =            256
    Max Functions          =            435

   => WB97X-D: Empirical Dispersion <=

    Chai and Head-Gordon Dispersion Correction
    Chai, J.-D.; Head-Gordon, M. (2010), J. Chem. Phys., 132: 6615-6620

        s6 =       1.000000

   => Loading Basis Set <=

    Name: (AUG-CC-PVDZ AUX)
    Role: JKFIT
    Keyword: DF_BASIS_SCF
    atoms 1             entry N          line   212 file /fsx/users/francis/anaconda3/envs/poltype-dev/share/psi4/basis/aug-cc-pvdz-jkfit.gbs 
    atoms 2-3, 6-12, 14 entry C          line   154 file /fsx/users/francis/anaconda3/envs/poltype-dev/share/psi4/basis/aug-cc-pvdz-jkfit.gbs 
    atoms 4-5           entry F          line   328 file /fsx/users/francis/anaconda3/envs/poltype-dev/share/psi4/basis/aug-cc-pvdz-jkfit.gbs 
    atoms 13            entry S          line   690 file /fsx/users/francis/anaconda3/envs/poltype-dev/share/psi4/basis/aug-cc-pvdz-jkfit.gbs 
    atoms 15-16, 24     entry O          line   270 file /fsx/users/francis/anaconda3/envs/poltype-dev/share/psi4/basis/aug-cc-pvdz-jkfit.gbs 
    atoms 17-23, 25-26  entry H          line    70 file /fsx/users/francis/anaconda3/envs/poltype-dev/share/psi4/basis/aug-cc-pvdz-jkfit.gbs 

  ==> Pre-Iterations <==

   -------------------------------------------------------
    Irrep   Nso     Nmo     Nalpha   Nbeta   Ndocc  Nsocc
   -------------------------------------------------------
     A        476     476       0       0       0       0
   -------------------------------------------------------
    Total     476     476      67      67      67       0
   -------------------------------------------------------

  ==> Integral Setup <==

  ==> DiskDFJK: Density-Fitted J/K Matrices <==

    J tasked:                  Yes
    K tasked:                  Yes
    wK tasked:                 Yes
    Omega:               2.000E-01
    OpenMP threads:              8
    Integrals threads:           8
    Memory [MiB]:             5848
    Algorithm:                Core
    Integral Cache:           NONE
    Schwarz Cutoff:          1E-12
    Fitting Condition:       1E-10

   => Auxiliary Basis Set <=

  Basis Set: (AUG-CC-PVDZ AUX)
    Blend: AUG-CC-PVDZ-JKFIT
    Number of shells: 596
    Number of basis function: 1792
    Number of Cartesian functions: 2081
    Spherical Harmonics?: true
    Max angular momentum: 3

  Cached 100.0% of DFT collocation blocks in 5.464 [GiB].

  Minimum eigenvalue in the overlap matrix is 1.4480162967E-06.
  Using Symmetric Orthogonalization.

  SCF Guess: Superposition of Atomic Densities via on-the-fly atomic UHF.

  ==> Iterations <==

                           Total Energy        Delta E     RMS |[F,P]|

   @DF-RKS iter SAD: -1263.45553880601960   -1.26346e+03   0.00000e+00 
   @DF-RKS iter   1: -1263.99318296962724   -5.37644e-01   2.52794e-03 DIIS
   @DF-RKS iter   2: -1264.00587151575292   -1.26885e-02   2.70008e-03 DIIS
   @DF-RKS iter   3: -1264.60998893617352   -6.04117e-01   5.09282e-04 DIIS
   @DF-RKS iter   4: -1264.63150343727170   -2.15145e-02   1.87724e-04 DIIS
   @DF-RKS iter   5: -1264.63465587589917   -3.15244e-03   5.30538e-05 DIIS
   @DF-RKS iter   6: -1264.63494629155184   -2.90416e-04   1.37156e-05 DIIS
   @DF-RKS iter   7: -1264.63497283190668   -2.65404e-05   4.64773e-06 DIIS
   @DF-RKS iter   8: -1264.63497733704594   -4.50514e-06   1.91406e-06 DIIS
   @DF-RKS iter   9: -1264.63497837874183   -1.04170e-06   1.18861e-06 DIIS
   @DF-RKS iter  10: -1264.63497868971240   -3.10971e-07   3.53260e-07 DIIS
  Energy and wave function converged.


  ==> Post-Iterations <==

    Orbital Energies [Eh]
    ---------------------

    Doubly Occupied:                                                      

       1A    -89.063436     2A    -24.872949     3A    -24.859665  
       4A    -19.296250     5A    -19.293464     6A    -19.281083  
       7A    -14.527210     8A    -10.500354     9A    -10.448177  
      10A    -10.428887    11A    -10.397543    12A    -10.370007  
      13A    -10.346949    14A    -10.343285    15A    -10.341487  
      16A    -10.340079    17A    -10.335862    18A     -8.080910  
      19A     -6.030767    20A     -6.026664    21A     -6.019703  
      22A     -1.377964    23A     -1.319161    24A     -1.182843  
      25A     -1.170124    26A     -1.138571    27A     -1.084243  
      28A     -0.991647    29A     -0.930142    30A     -0.895292  
      31A     -0.879861    32A     -0.858722    33A     -0.784822  
      34A     -0.756783    35A     -0.743097    36A     -0.732394  
      37A     -0.687765    38A     -0.668896    39A     -0.661035  
      40A     -0.649735    41A     -0.634908    42A     -0.620875  
      43A     -0.582491    44A     -0.572190    45A     -0.561910  
      46A     -0.556001    47A     -0.550081    48A     -0.547931  
      49A     -0.540851    50A     -0.532242    51A     -0.527883  
      52A     -0.520722    53A     -0.509983    54A     -0.507537  
      55A     -0.497172    56A     -0.492708    57A     -0.484469  
      58A     -0.473071    59A     -0.465751    60A     -0.433602  
      61A     -0.423587    62A     -0.412966    63A     -0.390406  
      64A     -0.363666    65A     -0.358879    66A     -0.331615  
      67A     -0.325965  

    Virtual:                                                              

      68A     -0.044064    69A      0.014862    70A      0.027467  
      71A      0.033823    72A      0.037099    73A      0.043590  
      74A      0.049653    75A      0.052857    76A      0.059191  
      77A      0.066168    78A      0.069315    79A      0.075155  
      80A      0.080254    81A      0.083705    82A      0.089829  
      83A      0.095489    84A      0.104104    85A      0.109223  
      86A      0.111997    87A      0.116844    88A      0.118312  
      89A      0.121400    90A      0.126624    91A      0.129000  
      92A      0.134132    93A      0.137951    94A      0.138660  
      95A      0.143992    96A      0.150611    97A      0.152093  
      98A      0.155321    99A      0.161065   100A      0.164073  
     101A      0.168054   102A      0.172371   103A      0.174636  
     104A      0.177599   105A      0.179207   106A      0.182362  
     107A      0.185840   108A      0.191615   109A      0.197701  
     110A      0.199272   111A      0.201598   112A      0.206621  
     113A      0.211369   114A      0.212441   115A      0.222226  
     116A      0.223947   117A      0.230014   118A      0.234596  
     119A      0.236144   120A      0.239046   121A      0.241200  
     122A      0.248108   123A      0.253624   124A      0.257810  
     125A      0.260141   126A      0.264256   127A      0.267796  
     128A      0.274396   129A      0.276888   130A      0.279654  
     131A      0.283335   132A      0.286893   133A      0.288739  
     134A      0.291376   135A      0.292391   136A      0.298789  
     137A      0.301956   138A      0.307259   139A      0.311705  
     140A      0.314760   141A      0.321865   142A      0.323034  
     143A      0.326943   144A      0.336354   145A      0.339418  
     146A      0.342154   147A      0.349442   148A      0.351874  
     149A      0.353972   150A      0.358348   151A      0.365323  
     152A      0.365925   153A      0.372191   154A      0.372664  
     155A      0.380494   156A      0.383462   157A      0.384870  
     158A      0.387904   159A      0.389623   160A      0.397364  
     161A      0.403512   162A      0.411014   163A      0.411346  
     164A      0.415434   165A      0.418110   166A      0.424119  
     167A      0.426022   168A      0.432288   169A      0.432630  
     170A      0.440421   171A      0.442529   172A      0.447875  
     173A      0.455094   174A      0.463098   175A      0.472624  
     176A      0.479340   177A      0.484415   178A      0.490233  
     179A      0.494744   180A      0.497378   181A      0.501997  
     182A      0.506732   183A      0.513188   184A      0.516367  
     185A      0.519888   186A      0.522255   187A      0.530154  
     188A      0.533995   189A      0.536211   190A      0.542218  
     191A      0.547457   192A      0.553181   193A      0.556287  
     194A      0.566671   195A      0.568265   196A      0.574476  
     197A      0.577640   198A      0.584969   199A      0.589763  
     200A      0.597819   201A      0.603782   202A      0.608732  
     203A      0.612819   204A      0.617317   205A      0.626319  
     206A      0.629785   207A      0.633140   208A      0.636368  
     209A      0.640399   210A      0.645279   211A      0.651091  
     212A      0.653480   213A      0.660660   214A      0.661781  
     215A      0.670988   216A      0.676837   217A      0.679630  
     218A      0.683514   219A      0.687316   220A      0.691344  
     221A      0.700421   222A      0.706755   223A      0.708178  
     224A      0.712006   225A      0.721259   226A      0.731906  
     227A      0.733471   228A      0.742015   229A      0.748324  
     230A      0.758563   231A      0.762624   232A      0.769371  
     233A      0.772023   234A      0.777772   235A      0.784350  
     236A      0.792766   237A      0.799813   238A      0.804603  
     239A      0.813453   240A      0.820090   241A      0.824487  
     242A      0.827936   243A      0.833776   244A      0.837650  
     245A      0.846416   246A      0.850932   247A      0.858516  
     248A      0.860006   249A      0.864304   250A      0.869982  
     251A      0.878540   252A      0.891472   253A      0.902768  
     254A      0.911853   255A      0.916549   256A      0.929487  
     257A      0.932204   258A      0.942471   259A      0.951398  
     260A      0.955662   261A      0.961594   262A      0.979091  
     263A      0.987984   264A      0.997700   265A      1.004858  
     266A      1.010279   267A      1.019098   268A      1.022758  
     269A      1.026921   270A      1.046599   271A      1.050797  
     272A      1.067018   273A      1.080353   274A      1.082896  
     275A      1.094793   276A      1.098476   277A      1.110348  
     278A      1.118024   279A      1.127384   280A      1.135751  
     281A      1.143075   282A      1.148587   283A      1.153964  
     284A      1.157830   285A      1.165799   286A      1.189220  
     287A      1.197091   288A      1.204991   289A      1.207919  
     290A      1.214820   291A      1.224581   292A      1.237805  
     293A      1.253428   294A      1.255867   295A      1.264308  
     296A      1.289710   297A      1.292555   298A      1.294753  
     299A      1.314390   300A      1.323841   301A      1.329502  
     302A      1.338043   303A      1.343932   304A      1.362909  
     305A      1.366387   306A      1.373423   307A      1.379876  
     308A      1.390321   309A      1.398398   310A      1.407655  
     311A      1.420215   312A      1.426128   313A      1.430009  
     314A      1.442463   315A      1.445912   316A      1.463865  
     317A      1.473092   318A      1.480670   319A      1.495834  
     320A      1.503002   321A      1.512543   322A      1.515440  
     323A      1.530633   324A      1.546122   325A      1.550589  
     326A      1.558301   327A      1.567074   328A      1.570035  
     329A      1.576317   330A      1.578616   331A      1.605913  
     332A      1.610459   333A      1.617049   334A      1.620220  
     335A      1.625328   336A      1.626044   337A      1.640102  
     338A      1.645593   339A      1.660715   340A      1.672427  
     341A      1.677231   342A      1.683158   343A      1.691017  
     344A      1.707542   345A      1.722288   346A      1.724626  
     347A      1.735994   348A      1.745700   349A      1.752483  
     350A      1.763331   351A      1.772593   352A      1.776284  
     353A      1.785629   354A      1.802805   355A      1.805531  
     356A      1.823447   357A      1.830277   358A      1.833389  
     359A      1.849404   360A      1.865881   361A      1.870346  
     362A      1.876123   363A      1.882741   364A      1.890572  
     365A      1.897057   366A      1.911178   367A      1.917458  
     368A      1.925635   369A      1.941670   370A      1.943166  
     371A      1.960179   372A      1.967483   373A      1.979594  
     374A      1.981558   375A      1.994179   376A      2.002622  
     377A      2.011225   378A      2.022542   379A      2.037856  
     380A      2.043754   381A      2.047257   382A      2.064593  
     383A      2.069186   384A      2.081077   385A      2.099557  
     386A      2.106053   387A      2.114874   388A      2.128807  
     389A      2.138525   390A      2.144101   391A      2.167413  
     392A      2.181502   393A      2.191916   394A      2.206255  
     395A      2.213930   396A      2.214272   397A      2.234626  
     398A      2.240846   399A      2.247580   400A      2.261074  
     401A      2.292899   402A      2.302835   403A      2.311959  
     404A      2.334880   405A      2.339379   406A      2.342705  
     407A      2.349027   408A      2.354282   409A      2.360377  
     410A      2.370914   411A      2.387491   412A      2.419161  
     413A      2.434971   414A      2.442347   415A      2.457958  
     416A      2.485518   417A      2.503773   418A      2.519494  
     419A      2.560193   420A      2.575112   421A      2.601758  
     422A      2.610167   423A      2.620234   424A      2.644655  
     425A      2.675848   426A      2.686433   427A      2.700680  
     428A      2.708222   429A      2.716034   430A      2.731474  
     431A      2.753181   432A      2.765889   433A      2.818373  
     434A      2.866002   435A      2.899766   436A      2.970492  
     437A      2.979605   438A      3.031964   439A      3.048238  
     440A      3.121287   441A      3.175928   442A      3.225323  
     443A      3.380529   444A      3.394265   445A      3.400395  
     446A      3.434122   447A      3.470619   448A      3.481456  
     449A      3.497281   450A      3.510516   451A      3.533156  
     452A      3.537469   453A      3.545276   454A      3.577591  
     455A      3.585144   456A      3.626334   457A      3.646229  
     458A      3.721482   459A      3.749422   460A      3.763298  
     461A      3.818498   462A      3.862741   463A      3.912465  
     464A      3.982176   465A      4.067002   466A      4.497664  
     467A      4.643686   468A      4.674604   469A      4.728734  
     470A      4.733088   471A      4.757247   472A      4.767945  
     473A      4.796594   474A      4.828641   475A      4.887436  
     476A      4.912832  

    Final Occupation by Irrep:
              A 
    DOCC [    67 ]

  @DF-RKS Final Energy: -1264.63497868971240

   => Energetics <=

    Nuclear Repulsion Energy =           1350.5099267129369309
    One-Electron Energy =               -4420.8722027952771896
    Two-Electron Energy =                1901.7639293972947598
    DFT Exchange-Correlation Energy =     -96.0197646253155881
    Empirical Dispersion Energy =          -0.0168673793517434
    VV10 Nonlocal Energy =                  0.0000000000000000
    Total Energy =                      -1264.6349786897123977

Computation Completed


Properties will be evaluated at   0.000000,  -0.000000,   0.000000 [a0]

Properties computed using the SCF density matrix

  Nuclear Dipole Moment: [e a0]
     X:    19.4528      Y:    -1.5694      Z:    -7.3529

  Electronic Dipole Moment: [e a0]
     X:   -17.7643      Y:     1.3025      Z:     6.6541

  Dipole Moment: [e a0]
     X:     1.6886      Y:    -0.2669      Z:    -0.6987     Total:     1.8468

  Dipole Moment: [D]
     X:     4.2919      Y:    -0.6783      Z:    -1.7760     Total:     4.6941


*** tstop() called on cpu-spot-dy-c5n2xlarge-1 at Tue Jun 22 17:32:18 2021
Module time:
	user time   =     918.23 seconds =      15.30 minutes
	system time =       9.23 seconds =       0.15 minutes
	total time  =        125 seconds =       2.08 minutes
Total time:
	user time   =    3240.73 seconds =      54.01 minutes
	system time =      33.00 seconds =       0.55 minutes
	total time  =        438 seconds =       7.30 minutes

       N-Body: Complex Energy (fragments = (1, 2), basis = (1, 2): -1264.63497868971240)

   ==> N-Body: Counterpoise Corrected (CP) energies <==

   n-Body     Total Energy [Eh]       I.E. [kcal/mol]      Delta [kcal/mol]
        1    -1264.624401025831        0.000000000000        0.000000000000
        2    -1264.633922197104       -5.974625175003       -5.974625175003

   => Loading Basis Set <=

    Name: DEF2-SVP
    Role: ORBITAL
    Keyword: BASIS
    atoms 1             entry N          line   110 file /fsx/users/francis/anaconda3/envs/poltype-dev/share/psi4/basis/def2-svp.gbs 
    atoms 2-3, 6-12, 14 entry C          line    90 file /fsx/users/francis/anaconda3/envs/poltype-dev/share/psi4/basis/def2-svp.gbs 
    atoms 4-5           entry F          line   150 file /fsx/users/francis/anaconda3/envs/poltype-dev/share/psi4/basis/def2-svp.gbs 
    atoms 13            entry S          line   328 file /fsx/users/francis/anaconda3/envs/poltype-dev/share/psi4/basis/def2-svp.gbs 
    atoms 15-16, 24     entry O          line   130 file /fsx/users/francis/anaconda3/envs/poltype-dev/share/psi4/basis/def2-svp.gbs 
    atoms 17-23, 25-26  entry H          line    15 file /fsx/users/francis/anaconda3/envs/poltype-dev/share/psi4/basis/def2-svp.gbs 

CP Energy =  -0.009521
    Psi4 stopped on: Tuesday, 22 June 2021 05:32PM
    Psi4 wall time for execution: 0:07:18.09

*** Psi4 exiting successfully. Buy a developer a beer!
