
    -----------------------------------------------------------------------
          Psi4: An Open-Source Ab Initio Electronic Structure Package
                               Psi4 1.3.2 release

                         Git: Rev {HEAD} ecbda83 


    R. M. Parrish, L. A. Burns, D. G. A. Smith, A. C. Simmonett,
    A. E. DePrince III, E. G. Hohenstein, U. Bozkaya, A. Yu. Sokolov,
    R. Di Remigio, R. M. Richard, J. F. Gonthier, A. M. James,
    H. R. McAlexander, A. Kumar, M. Saitow, X. Wang, B. P. Pritchard,
    P. Verma, H. F. Schaefer III, K. Patkowski, R. A. King, E. F. Valeev,
    F. A. Evangelista, J. M. Turney, T. D. Crawford, and C. D. Sherrill,
    J. Chem. Theory Comput. 13(7) pp 3185--3197 (2017).
    (doi: 10.1021/acs.jctc.7b00174)


                         Additional Contributions by
    P. Kraus, H. Kruse, M. H. Lechner, M. C. Schieber, R. A. Shaw,
    A. Alenaizan, R. Galvelis, Z. L. Glick, S. Lehtola, and J. P. Misiewicz

    -----------------------------------------------------------------------


    Psi4 started on: Tuesday, 22 June 2021 08:25PM

    Process ID: 31981
    Host:       cpu-spot-dy-c5n2xlarge-1
    PSIDATADIR: /fsx/users/francis/anaconda3/envs/poltype-dev/share/psi4
    Memory:     500.0 MiB
    Threads:    1
    
  ==> Input File <==

--------------------------------------------------------------------------
molecule { 
0 1
  N                 -0.7735580    -1.3877650     0.3762830
  C                 -2.0506670    -1.1155840     0.7908700
  C                 -2.5043840     0.3774880     0.6774080
  F                 -3.5962270     0.4156400    -0.1601540
  F                 -2.9061990     0.7850010     1.9298970
  C                 -1.4528850     1.4123530     0.1460210
  C                 -0.1227770     0.8977000    -0.2526910
  C                  0.8620890     1.7845470    -0.7401720
  C                  2.1113680     1.3117470    -1.1603950
  C                  2.4259530    -0.0670330    -1.0508120
  C                  1.4556270    -0.9494480    -0.5289330
  C                  0.1886820    -0.4855360    -0.1346250
  S                  3.9638070    -0.7835970    -1.5571510
  C                  5.1473010    -0.1867290    -0.3239010
  O                 -2.7686020    -2.0098140     1.2138050
  O                 -1.7369170     2.6034530     0.0621640
  H                  2.8251380     2.0222360    -1.5760210
  H                  0.6132780     2.8438570    -0.8113500
  H                 -0.5385400    -2.3658440     0.4783350
  H                  1.6887170    -2.0114780    -0.4410070
  H                  5.2957800     0.8895290    -0.4541750
  H                  4.7632760    -0.3852570     0.6822070
  H                  6.0990420    -0.7082150    -0.4615910
--
0 1
  O                  2.8392530     0.3768930     2.2182330
  H                  2.4248250     0.5724530     1.3761900
  H                  2.7698490     1.1534560     2.7739250
}
memory 16GB
set_num_threads(8)
psi4_io.set_default_path("/scratch/Psi4-ligand")
set maxiter 500
set freeze_core True
set PROPERTIES_ORIGIN ["COM"]
e_dim= energy('wb97x-d/aug-cc-pVDZ',bsse_type='cp')

psi4.print_out('CP Energy = %10.6f' % (e_dim))
clean()
--------------------------------------------------------------------------

  Memory set to  14.901 GiB by Python driver.
  Threads set to 8 by Python driver.


   ===> N-Body Interaction Abacus <===
        BSSE Treatment:                     cp
        Number of 1-body computations:     4
        Number of 2-body computations:     1

   ==> N-Body: Now computing 1-body complexes <==


       N-Body: Computing complex (1/4) with fragments (2,) in the basis of fragments (2,).


*** tstart() called on cpu-spot-dy-c5n2xlarge-1
*** at Tue Jun 22 20:25:37 2021

   => Loading Basis Set <=

    Name: AUG-CC-PVDZ
    Role: ORBITAL
    Keyword: BASIS
    atoms 1   entry O          line   250 file /fsx/users/francis/anaconda3/envs/poltype-dev/share/psi4/basis/aug-cc-pvdz.gbs 
    atoms 2-3 entry H          line    36 file /fsx/users/francis/anaconda3/envs/poltype-dev/share/psi4/basis/aug-cc-pvdz.gbs 


         ---------------------------------------------------------
                                   SCF
               by Justin Turney, Rob Parrish, Andy Simmonett
                          and Daniel G. A. Smith
                              RKS Reference
                        8 Threads,  15258 MiB Core
         ---------------------------------------------------------

  ==> Geometry <==

    Molecular point group: c1
    Full point group: C1

    Geometry (in Angstrom), charge = 0, multiplicity = 1:

       Center              X                  Y                   Z               Mass       
    ------------   -----------------  -----------------  -----------------  -----------------
         O            2.591847759605     0.255724846292     2.158286965535    15.994914619570
         H            2.177419759605     0.451284846292     1.316243965535     1.007825032230
         H            2.522443759605     1.032287846292     2.713978965535     1.007825032230

  Running in c1 symmetry.

  Rotational constants: A =     17.84575  B =      0.08267  C =      0.08246 [cm^-1]
  Rotational constants: A = 535002.22331  B =   2478.50876  C =   2472.08932 [MHz]
  Nuclear repulsion =    9.178499121640559

  Charge       = 0
  Multiplicity = 1
  Electrons    = 10
  Nalpha       = 5
  Nbeta        = 5

  ==> Algorithm <==

  SCF Algorithm Type is DF.
  DIIS enabled.
  MOM disabled.
  Fractional occupation disabled.
  Guess Type is SAD.
  Energy threshold   = 1.00e-06
  Density threshold  = 1.00e-06
  Integral threshold = 0.00e+00

  ==> Primary Basis <==

  Basis Set: AUG-CC-PVDZ
    Blend: AUG-CC-PVDZ
    Number of shells: 19
    Number of basis function: 41
    Number of Cartesian functions: 43
    Spherical Harmonics?: true
    Max angular momentum: 2

  ==> DFT Potential <==

   => Composite Functional: WB97X-D <= 

    wB97X-D Hyb-GGA Exchange-Correlation Functional

    J.-D. Chai and M. Head-Gordon, Phys. Chem. Chem. Phys. 10, 6615 (2008)

    Deriv               =              1
    GGA                 =           TRUE
    Meta                =          FALSE

    Exchange Hybrid     =           TRUE
    MP2 Hybrid          =          FALSE

   => Exchange-Correlation Functionals <=

    1.0000   wB97D range-separated functional

   => Exact (HF) Exchange <=

    0.7780            HF,LR [omega = 0.2000]
    0.2220               HF 

   => Molecular Quadrature <=

    Radial Scheme          =       TREUTLER
    Pruning Scheme         =           FLAT
    Nuclear Scheme         =       TREUTLER

    BS radius alpha        =              1
    Pruning alpha          =              1
    Radial Points          =             75
    Spherical Points       =            302
    Total Points           =          67950
    Total Blocks           =            556
    Max Points             =            256
    Max Functions          =             41

   => WB97X-D: Empirical Dispersion <=

    Chai and Head-Gordon Dispersion Correction
    Chai, J.-D.; Head-Gordon, M. (2010), J. Chem. Phys., 132: 6615-6620

        s6 =       1.000000

   => Loading Basis Set <=

    Name: (AUG-CC-PVDZ AUX)
    Role: JKFIT
    Keyword: DF_BASIS_SCF
    atoms 1   entry O          line   270 file /fsx/users/francis/anaconda3/envs/poltype-dev/share/psi4/basis/aug-cc-pvdz-jkfit.gbs 
    atoms 2-3 entry H          line    70 file /fsx/users/francis/anaconda3/envs/poltype-dev/share/psi4/basis/aug-cc-pvdz-jkfit.gbs 

  ==> Pre-Iterations <==

   -------------------------------------------------------
    Irrep   Nso     Nmo     Nalpha   Nbeta   Ndocc  Nsocc
   -------------------------------------------------------
     A         41      41       0       0       0       0
   -------------------------------------------------------
    Total      41      41       5       5       5       0
   -------------------------------------------------------

  ==> Integral Setup <==

  ==> DiskDFJK: Density-Fitted J/K Matrices <==

    J tasked:                  Yes
    K tasked:                  Yes
    wK tasked:                 Yes
    Omega:               2.000E-01
    OpenMP threads:              8
    Integrals threads:           8
    Memory [MiB]:            11363
    Algorithm:                Core
    Integral Cache:           NONE
    Schwarz Cutoff:          1E-12
    Fitting Condition:       1E-10

   => Auxiliary Basis Set <=

  Basis Set: (AUG-CC-PVDZ AUX)
    Blend: AUG-CC-PVDZ-JKFIT
    Number of shells: 52
    Number of basis function: 150
    Number of Cartesian functions: 171
    Spherical Harmonics?: true
    Max angular momentum: 3

  Cached 100.0% of DFT collocation blocks in 0.079 [GiB].

  Minimum eigenvalue in the overlap matrix is 2.8163119931E-03.
  Using Symmetric Orthogonalization.

  SCF Guess: Superposition of Atomic Densities via on-the-fly atomic UHF.

  ==> Iterations <==

                           Total Energy        Delta E     RMS |[F,P]|

   @DF-RKS iter SAD:   -75.95396507948541   -7.59540e+01   0.00000e+00 
   @DF-RKS iter   1:   -76.27470246539615   -3.20737e-01   1.51125e-02 DIIS
   @DF-RKS iter   2:   -76.22855311775250    4.61493e-02   1.77795e-02 DIIS
   @DF-RKS iter   3:   -76.41931532768703   -1.90762e-01   3.63862e-04 DIIS
   @DF-RKS iter   4:   -76.41946042286401   -1.45095e-04   9.78085e-05 DIIS
   @DF-RKS iter   5:   -76.41946824886205   -7.82600e-06   1.85726e-05 DIIS
   @DF-RKS iter   6:   -76.41946857259308   -3.23731e-07   2.02962e-06 DIIS
   @DF-RKS iter   7:   -76.41946858329841   -1.07053e-08   2.56040e-07 DIIS
  Energy and wave function converged.


  ==> Post-Iterations <==

    Orbital Energies [Eh]
    ---------------------

    Doubly Occupied:                                                      

       1A    -19.277993     2A     -1.119963     3A     -0.633114  
       4A     -0.478103     5A     -0.406792  

    Virtual:                                                              

       6A      0.034101     7A      0.060933     8A      0.162266  
       9A      0.190700    10A      0.199511    11A      0.217702  
      12A      0.256271    13A      0.301431    14A      0.361941  
      15A      0.379006    16A      0.408765    17A      0.518041  
      18A      0.580561    19A      0.603918    20A      0.718017  
      21A      0.809032    22A      0.979956    23A      0.991363  
      24A      1.034687    25A      1.176903    26A      1.289963  
      27A      1.316288    28A      1.397527    29A      1.818297  
      30A      1.852308    31A      1.920078    32A      2.229789  
      33A      2.236242    34A      2.378957    35A      2.498726  
      36A      2.708591    37A      3.372391    38A      3.384379  
      39A      3.402932    40A      3.741645    41A      3.970563  

    Final Occupation by Irrep:
              A 
    DOCC [     5 ]

  @DF-RKS Final Energy:   -76.41946858329841

   => Energetics <=

    Nuclear Repulsion Energy =              9.1784991216405594
    One-Electron Energy =                -122.9692391817331298
    Two-Electron Energy =                  43.8449177686742644
    DFT Exchange-Correlation Energy =      -6.4736153850748375
    Empirical Dispersion Energy =          -0.0000309068052664
    VV10 Nonlocal Energy =                  0.0000000000000000
    Total Energy =                        -76.4194685832984106

Computation Completed


Properties will be evaluated at   4.846720,   0.586046,   4.048291 [a0]

Properties computed using the SCF density matrix

  Nuclear Dipole Moment: [e a0]
     X:    -0.4027      Y:     0.8091      Z:    -0.2383

  Electronic Dipole Moment: [e a0]
     X:     0.0924      Y:    -0.1855      Z:     0.0549

  Dipole Moment: [e a0]
     X:    -0.3103      Y:     0.6236      Z:    -0.1835     Total:     0.7203

  Dipole Moment: [D]
     X:    -0.7886      Y:     1.5850      Z:    -0.4663     Total:     1.8308


*** tstop() called on cpu-spot-dy-c5n2xlarge-1 at Tue Jun 22 20:25:38 2021
Module time:
	user time   =       8.25 seconds =       0.14 minutes
	system time =       0.23 seconds =       0.00 minutes
	total time  =          1 seconds =       0.02 minutes
Total time:
	user time   =       8.25 seconds =       0.14 minutes
	system time =       0.23 seconds =       0.00 minutes
	total time  =          1 seconds =       0.02 minutes

       N-Body: Complex Energy (fragments = (2,), basis = (2,):   -76.41946858329841)

       N-Body: Computing complex (2/4) with fragments (2,) in the basis of fragments (1, 2).


*** tstart() called on cpu-spot-dy-c5n2xlarge-1
*** at Tue Jun 22 20:25:38 2021

   => Loading Basis Set <=

    Name: AUG-CC-PVDZ
    Role: ORBITAL
    Keyword: BASIS
    atoms 1             entry N          line   214 file /fsx/users/francis/anaconda3/envs/poltype-dev/share/psi4/basis/aug-cc-pvdz.gbs 
    atoms 2-3, 6-12, 14 entry C          line   178 file /fsx/users/francis/anaconda3/envs/poltype-dev/share/psi4/basis/aug-cc-pvdz.gbs 
    atoms 4-5           entry F          line   286 file /fsx/users/francis/anaconda3/envs/poltype-dev/share/psi4/basis/aug-cc-pvdz.gbs 
    atoms 13            entry S          line   698 file /fsx/users/francis/anaconda3/envs/poltype-dev/share/psi4/basis/aug-cc-pvdz.gbs 
    atoms 15-16, 24     entry O          line   250 file /fsx/users/francis/anaconda3/envs/poltype-dev/share/psi4/basis/aug-cc-pvdz.gbs 
    atoms 17-23, 25-26  entry H          line    36 file /fsx/users/francis/anaconda3/envs/poltype-dev/share/psi4/basis/aug-cc-pvdz.gbs 


         ---------------------------------------------------------
                                   SCF
               by Justin Turney, Rob Parrish, Andy Simmonett
                          and Daniel G. A. Smith
                              RKS Reference
                        8 Threads,  15258 MiB Core
         ---------------------------------------------------------

  ==> Geometry <==

    Molecular point group: c1
    Full point group: C1

    Geometry (in Angstrom), charge = 0, multiplicity = 1:

       Center              X                  Y                   Z               Mass       
    ------------   -----------------  -----------------  -----------------  -----------------
      Gh(N)          -1.020963240395    -1.508933153708     0.316336965535    14.003074004430
      Gh(C)          -2.298072240395    -1.236752153708     0.730923965535    12.000000000000
      Gh(C)          -2.751789240395     0.256319846292     0.617461965535    12.000000000000
      Gh(F)          -3.843632240395     0.294471846292    -0.220100034465    18.998403162730
      Gh(F)          -3.153604240395     0.663832846292     1.869950965535    18.998403162730
      Gh(C)          -1.700290240395     1.291184846292     0.086074965535    12.000000000000
      Gh(C)          -0.370182240395     0.776531846292    -0.312637034465    12.000000000000
      Gh(C)           0.614683759605     1.663378846292    -0.800118034465    12.000000000000
      Gh(C)           1.863962759605     1.190578846292    -1.220341034465    12.000000000000
      Gh(C)           2.178547759605    -0.188201153708    -1.110758034465    12.000000000000
      Gh(C)           1.208221759605    -1.070616153708    -0.588879034465    12.000000000000
      Gh(C)          -0.058723240395    -0.606704153708    -0.194571034465    12.000000000000
      Gh(S)           3.716401759605    -0.904765153708    -1.617097034465    31.972071174400
      Gh(C)           4.899895759605    -0.307897153708    -0.383847034465    12.000000000000
      Gh(O)          -3.016007240395    -2.130982153708     1.153858965535    15.994914619570
      Gh(O)          -1.984322240395     2.482284846292     0.002217965535    15.994914619570
      Gh(H)           2.577732759605     1.901067846292    -1.635967034465     1.007825032230
      Gh(H)           0.365872759605     2.722688846292    -0.871296034465     1.007825032230
      Gh(H)          -0.785945240395    -2.487012153708     0.418388965535     1.007825032230
      Gh(H)           1.441311759605    -2.132646153708    -0.500953034465     1.007825032230
      Gh(H)           5.048374759605     0.768360846292    -0.514121034465     1.007825032230
      Gh(H)           4.515870759605    -0.506425153708     0.622260965535     1.007825032230
      Gh(H)           5.851636759605    -0.829383153708    -0.521537034465     1.007825032230
         O            2.591847759605     0.255724846292     2.158286965535    15.994914619570
         H            2.177419759605     0.451284846292     1.316243965535     1.007825032230
         H            2.522443759605     1.032287846292     2.713978965535     1.007825032230

  Running in c1 symmetry.

  Rotational constants: A =      0.02782  B =      0.00744  C =      0.00697 [cm^-1]
  Rotational constants: A =    834.13075  B =    223.00718  C =    208.98265 [MHz]
  Nuclear repulsion =    9.178499121640559

  Charge       = 0
  Multiplicity = 1
  Electrons    = 10
  Nalpha       = 5
  Nbeta        = 5

  ==> Algorithm <==

  SCF Algorithm Type is DF.
  DIIS enabled.
  MOM disabled.
  Fractional occupation disabled.
  Guess Type is SAD.
  Energy threshold   = 1.00e-06
  Density threshold  = 1.00e-06
  Integral threshold = 0.00e+00

  ==> Primary Basis <==

  Basis Set: AUG-CC-PVDZ
    Blend: AUG-CC-PVDZ
    Number of shells: 200
    Number of basis function: 476
    Number of Cartesian functions: 510
    Spherical Harmonics?: true
    Max angular momentum: 2

  ==> DFT Potential <==

   => Composite Functional: WB97X-D <= 

    wB97X-D Hyb-GGA Exchange-Correlation Functional

    J.-D. Chai and M. Head-Gordon, Phys. Chem. Chem. Phys. 10, 6615 (2008)

    Deriv               =              1
    GGA                 =           TRUE
    Meta                =          FALSE

    Exchange Hybrid     =           TRUE
    MP2 Hybrid          =          FALSE

   => Exchange-Correlation Functionals <=

    1.0000   wB97D range-separated functional

   => Exact (HF) Exchange <=

    0.7780            HF,LR [omega = 0.2000]
    0.2220               HF 

   => Molecular Quadrature <=

    Radial Scheme          =       TREUTLER
    Pruning Scheme         =           FLAT
    Nuclear Scheme         =       TREUTLER

    BS radius alpha        =              1
    Pruning alpha          =              1
    Radial Points          =             75
    Spherical Points       =            302
    Total Points           =         588900
    Total Blocks           =           4369
    Max Points             =            256
    Max Functions          =            423

   => WB97X-D: Empirical Dispersion <=

    Chai and Head-Gordon Dispersion Correction
    Chai, J.-D.; Head-Gordon, M. (2010), J. Chem. Phys., 132: 6615-6620

        s6 =       1.000000

   => Loading Basis Set <=

    Name: (AUG-CC-PVDZ AUX)
    Role: JKFIT
    Keyword: DF_BASIS_SCF
    atoms 1             entry N          line   212 file /fsx/users/francis/anaconda3/envs/poltype-dev/share/psi4/basis/aug-cc-pvdz-jkfit.gbs 
    atoms 2-3, 6-12, 14 entry C          line   154 file /fsx/users/francis/anaconda3/envs/poltype-dev/share/psi4/basis/aug-cc-pvdz-jkfit.gbs 
    atoms 4-5           entry F          line   328 file /fsx/users/francis/anaconda3/envs/poltype-dev/share/psi4/basis/aug-cc-pvdz-jkfit.gbs 
    atoms 13            entry S          line   690 file /fsx/users/francis/anaconda3/envs/poltype-dev/share/psi4/basis/aug-cc-pvdz-jkfit.gbs 
    atoms 15-16, 24     entry O          line   270 file /fsx/users/francis/anaconda3/envs/poltype-dev/share/psi4/basis/aug-cc-pvdz-jkfit.gbs 
    atoms 17-23, 25-26  entry H          line    70 file /fsx/users/francis/anaconda3/envs/poltype-dev/share/psi4/basis/aug-cc-pvdz-jkfit.gbs 

  ==> Pre-Iterations <==

   -------------------------------------------------------
    Irrep   Nso     Nmo     Nalpha   Nbeta   Ndocc  Nsocc
   -------------------------------------------------------
     A        476     476       0       0       0       0
   -------------------------------------------------------
    Total     476     476       5       5       5       0
   -------------------------------------------------------

  ==> Integral Setup <==

  ==> DiskDFJK: Density-Fitted J/K Matrices <==

    J tasked:                  Yes
    K tasked:                  Yes
    wK tasked:                 Yes
    Omega:               2.000E-01
    OpenMP threads:              8
    Integrals threads:           8
    Memory [MiB]:             5811
    Algorithm:                Core
    Integral Cache:           NONE
    Schwarz Cutoff:          1E-12
    Fitting Condition:       1E-10

   => Auxiliary Basis Set <=

  Basis Set: (AUG-CC-PVDZ AUX)
    Blend: AUG-CC-PVDZ-JKFIT
    Number of shells: 596
    Number of basis function: 1792
    Number of Cartesian functions: 2081
    Spherical Harmonics?: true
    Max angular momentum: 3

  Cached 100.0% of DFT collocation blocks in 5.501 [GiB].

  Minimum eigenvalue in the overlap matrix is 1.2202885511E-06.
  Using Symmetric Orthogonalization.

  SCF Guess: Superposition of Atomic Densities via on-the-fly atomic UHF.

  ==> Iterations <==

                           Total Energy        Delta E     RMS |[F,P]|

   @DF-RKS iter SAD:   -75.95397437459152   -7.59540e+01   0.00000e+00 
   @DF-RKS iter   1:   -76.27512546554010   -3.21151e-01   1.30573e-03 DIIS
   @DF-RKS iter   2:   -76.22871183456387    4.64136e-02   1.53645e-03 DIIS
   @DF-RKS iter   3:   -76.41978673407465   -1.91075e-01   3.19600e-05 DIIS
   @DF-RKS iter   4:   -76.41993966290912   -1.52929e-04   8.82310e-06 DIIS
   @DF-RKS iter   5:   -76.41994820908650   -8.54618e-06   1.62862e-06 DIIS
   @DF-RKS iter   6:   -76.41994855233222   -3.43246e-07   1.86935e-07 DIIS
  Energy and wave function converged.


  ==> Post-Iterations <==

    Orbital Energies [Eh]
    ---------------------

    Doubly Occupied:                                                      

       1A    -19.277793     2A     -1.119815     3A     -0.632927  
       4A     -0.477897     5A     -0.406527  

    Virtual:                                                              

       6A      0.016654     7A      0.034126     8A      0.036019  
       9A      0.042586    10A      0.051106    11A      0.055514  
      12A      0.064336    13A      0.070464    14A      0.074320  
      15A      0.076508    16A      0.081536    17A      0.087062  
      18A      0.094628    19A      0.100109    20A      0.103417  
      21A      0.105321    22A      0.106311    23A      0.120815  
      24A      0.122192    25A      0.125969    26A      0.132356  
      27A      0.135467    28A      0.138904    29A      0.145288  
      30A      0.147437    31A      0.150500    32A      0.154450  
      33A      0.156920    34A      0.163087    35A      0.166280  
      36A      0.173018    37A      0.177833    38A      0.185698  
      39A      0.188797    40A      0.192829    41A      0.193408  
      42A      0.195626    43A      0.203953    44A      0.207373  
      45A      0.211592    46A      0.214440    47A      0.216817  
      48A      0.222386    49A      0.224860    50A      0.228342  
      51A      0.234697    52A      0.239165    53A      0.245851  
      54A      0.248029    55A      0.251369    56A      0.260709  
      57A      0.265057    58A      0.267308    59A      0.270917  
      60A      0.279382    61A      0.283079    62A      0.287492  
      63A      0.292657    64A      0.302014    65A      0.303897  
      66A      0.310311    67A      0.312414    68A      0.315539  
      69A      0.321630    70A      0.325726    71A      0.333148  
      72A      0.336658    73A      0.338475    74A      0.343010  
      75A      0.348429    76A      0.355782    77A      0.359934  
      78A      0.362126    79A      0.375338    80A      0.377940  
      81A      0.381682    82A      0.386780    83A      0.397530  
      84A      0.399843    85A      0.404031    86A      0.411768  
      87A      0.417430    88A      0.422068    89A      0.422982  
      90A      0.431162    91A      0.435108    92A      0.447490  
      93A      0.453064    94A      0.457534    95A      0.459032  
      96A      0.468205    97A      0.472723    98A      0.480147  
      99A      0.483234   100A      0.486729   101A      0.493030  
     102A      0.497843   103A      0.504506   104A      0.508348  
     105A      0.512434   106A      0.518566   107A      0.526587  
     108A      0.528323   109A      0.535127   110A      0.546380  
     111A      0.550572   112A      0.554206   113A      0.559385  
     114A      0.566917   115A      0.572710   116A      0.577710  
     117A      0.580292   118A      0.591139   119A      0.593626  
     120A      0.604813   121A      0.613063   122A      0.615060  
     123A      0.617276   124A      0.621097   125A      0.624894  
     126A      0.637272   127A      0.642204   128A      0.654161  
     129A      0.660549   130A      0.662678   131A      0.669290  
     132A      0.673534   133A      0.687726   134A      0.692276  
     135A      0.697935   136A      0.702416   137A      0.711546  
     138A      0.718241   139A      0.722063   140A      0.724482  
     141A      0.736404   142A      0.739536   143A      0.741832  
     144A      0.750174   145A      0.758717   146A      0.770211  
     147A      0.772905   148A      0.782182   149A      0.783766  
     150A      0.791665   151A      0.805006   152A      0.814343  
     153A      0.818302   154A      0.819356   155A      0.820709  
     156A      0.830199   157A      0.834245   158A      0.840259  
     159A      0.846687   160A      0.857482   161A      0.873754  
     162A      0.876468   163A      0.878996   164A      0.883143  
     165A      0.894619   166A      0.903191   167A      0.906289  
     168A      0.909472   169A      0.914586   170A      0.920879  
     171A      0.925735   172A      0.933676   173A      0.943379  
     174A      0.951947   175A      0.958024   176A      0.964761  
     177A      0.970691   178A      0.974911   179A      0.979985  
     180A      0.988253   181A      0.997178   182A      1.006241  
     183A      1.010315   184A      1.015071   185A      1.026531  
     186A      1.032689   187A      1.039480   188A      1.044785  
     189A      1.064534   190A      1.074393   191A      1.079445  
     192A      1.084312   193A      1.098586   194A      1.104908  
     195A      1.120543   196A      1.123965   197A      1.129273  
     198A      1.139854   199A      1.152957   200A      1.161691  
     201A      1.170494   202A      1.176489   203A      1.186020  
     204A      1.192307   205A      1.196657   206A      1.206030  
     207A      1.216908   208A      1.222973   209A      1.228073  
     210A      1.244945   211A      1.248045   212A      1.257756  
     213A      1.275211   214A      1.280814   215A      1.286262  
     216A      1.309464   217A      1.314293   218A      1.322707  
     219A      1.325014   220A      1.326675   221A      1.333892  
     222A      1.347609   223A      1.360437   224A      1.369122  
     225A      1.373270   226A      1.412366   227A      1.426587  
     228A      1.436648   229A      1.442811   230A      1.447242  
     231A      1.463859   232A      1.466426   233A      1.477132  
     234A      1.491260   235A      1.497898   236A      1.505621  
     237A      1.522115   238A      1.540783   239A      1.561340  
     240A      1.570493   241A      1.574226   242A      1.588597  
     243A      1.601881   244A      1.614009   245A      1.639910  
     246A      1.641375   247A      1.647134   248A      1.658800  
     249A      1.673615   250A      1.678534   251A      1.707881  
     252A      1.730726   253A      1.739394   254A      1.764104  
     255A      1.771641   256A      1.786360   257A      1.803189  
     258A      1.843406   259A      1.858264   260A      1.869032  
     261A      1.882243   262A      1.905364   263A      1.917814  
     264A      1.926549   265A      1.937448   266A      1.956629  
     267A      1.964043   268A      1.984578   269A      1.994745  
     270A      2.043868   271A      2.050946   272A      2.060510  
     273A      2.071752   274A      2.088269   275A      2.098449  
     276A      2.114937   277A      2.125339   278A      2.137055  
     279A      2.163531   280A      2.172439   281A      2.185602  
     282A      2.189893   283A      2.210773   284A      2.216918  
     285A      2.224474   286A      2.232019   287A      2.240399  
     288A      2.242449   289A      2.254117   290A      2.268983  
     291A      2.286990   292A      2.294174   293A      2.300907  
     294A      2.305207   295A      2.322318   296A      2.335710  
     297A      2.339115   298A      2.343853   299A      2.352453  
     300A      2.363942   301A      2.371417   302A      2.377784  
     303A      2.386179   304A      2.394504   305A      2.403572  
     306A      2.428034   307A      2.438137   308A      2.463604  
     309A      2.477824   310A      2.482158   311A      2.510653  
     312A      2.516679   313A      2.544314   314A      2.550785  
     315A      2.553712   316A      2.567659   317A      2.585220  
     318A      2.607121   319A      2.617995   320A      2.622477  
     321A      2.630598   322A      2.642356   323A      2.645871  
     324A      2.663218   325A      2.663835   326A      2.694577  
     327A      2.723822   328A      2.730017   329A      2.755518  
     330A      2.772219   331A      2.788533   332A      2.800143  
     333A      2.808698   334A      2.825134   335A      2.835807  
     336A      2.845878   337A      2.855704   338A      2.878296  
     339A      2.886965   340A      2.896667   341A      2.915365  
     342A      2.933271   343A      2.941748   344A      2.971800  
     345A      2.998926   346A      3.014455   347A      3.031026  
     348A      3.048458   349A      3.060720   350A      3.069985  
     351A      3.087047   352A      3.103731   353A      3.144525  
     354A      3.161732   355A      3.212983   356A      3.216703  
     357A      3.259582   358A      3.266267   359A      3.282741  
     360A      3.297357   361A      3.319054   362A      3.339230  
     363A      3.348096   364A      3.380583   365A      3.433184  
     366A      3.450949   367A      3.468081   368A      3.486392  
     369A      3.500520   370A      3.514016   371A      3.525881  
     372A      3.542918   373A      3.562545   374A      3.581030  
     375A      3.584865   376A      3.619658   377A      3.653678  
     378A      3.691943   379A      3.718499   380A      3.730271  
     381A      3.753419   382A      3.795758   383A      3.842325  
     384A      3.883756   385A      3.904080   386A      3.907563  
     387A      3.989038   388A      4.001318   389A      4.042570  
     390A      4.053949   391A      4.116111   392A      4.146613  
     393A      4.197705   394A      4.233555   395A      4.294545  
     396A      4.327263   397A      4.356736   398A      4.387739  
     399A      4.468143   400A      4.526122   401A      4.547538  
     402A      4.559043   403A      4.602901   404A      4.656169  
     405A      4.696366   406A      4.816717   407A      4.861020  
     408A      4.869547   409A      4.937642   410A      4.989168  
     411A      5.016177   412A      5.027344   413A      5.033103  
     414A      5.050720   415A      5.065237   416A      5.082789  
     417A      5.089204   418A      5.111814   419A      5.127820  
     420A      5.206171   421A      5.253195   422A      5.312476  
     423A      5.344348   424A      5.381818   425A      5.392562  
     426A      5.421422   427A      5.515396   428A      5.569434  
     429A      5.631878   430A      5.860824   431A      5.964941  
     432A      6.038227   433A      6.050769   434A      6.074767  
     435A      6.090297   436A      6.171347   437A      6.412999  
     438A      6.485326   439A      6.800991   440A      6.818259  
     441A      6.827168   442A      6.861697   443A      6.868584  
     444A      6.901934   445A      6.906660   446A      6.932795  
     447A      6.977341   448A      7.006538   449A      7.008951  
     450A      7.039076   451A      7.127283   452A      7.680538  
     453A      7.939779   454A      8.045764   455A      8.060750  
     456A      8.066947   457A      8.297076   458A     18.018229  
     459A     18.443627   460A     18.572627   461A     18.643202  
     462A     18.815906   463A     18.897559   464A     19.127332  
     465A     19.359324   466A     19.729325   467A     20.640500  
     468A     20.716228   469A     20.948970   470A     21.441697  
     471A     25.479691   472A     33.538182   473A     33.544926  
     474A     43.007468   475A     43.015133   476A    138.005683  

    Final Occupation by Irrep:
              A 
    DOCC [     5 ]

  @DF-RKS Final Energy:   -76.41994855233222

   => Energetics <=

    Nuclear Repulsion Energy =              9.1784991216405594
    One-Electron Energy =                -122.9719318433558612
    Two-Electron Energy =                  43.8474386998899277
    DFT Exchange-Correlation Energy =      -6.4739236237015767
    Empirical Dispersion Energy =          -0.0000309068052664
    VV10 Nonlocal Energy =                  0.0000000000000000
    Total Energy =                        -76.4199485523322295

Computation Completed


Properties will be evaluated at  -0.000000,  -0.000000,   0.000000 [a0]

Properties computed using the SCF density matrix

  Nuclear Dipole Moment: [e a0]
     X:    48.0645      Y:     6.6695      Z:    40.2446

  Electronic Dipole Moment: [e a0]
     X:   -48.3747      Y:    -6.0475      Z:   -40.4294

  Dipole Moment: [e a0]
     X:    -0.3102      Y:     0.6220      Z:    -0.1848     Total:     0.7193

  Dipole Moment: [D]
     X:    -0.7885      Y:     1.5811      Z:    -0.4698     Total:     1.8282


*** tstop() called on cpu-spot-dy-c5n2xlarge-1 at Tue Jun 22 20:26:59 2021
Module time:
	user time   =     587.42 seconds =       9.79 minutes
	system time =       7.03 seconds =       0.12 minutes
	total time  =         81 seconds =       1.35 minutes
Total time:
	user time   =     595.74 seconds =       9.93 minutes
	system time =       7.26 seconds =       0.12 minutes
	total time  =         82 seconds =       1.37 minutes

       N-Body: Complex Energy (fragments = (2,), basis = (1, 2):   -76.41994855233222)

       N-Body: Computing complex (3/4) with fragments (1,) in the basis of fragments (1, 2).


*** tstart() called on cpu-spot-dy-c5n2xlarge-1
*** at Tue Jun 22 20:26:59 2021

   => Loading Basis Set <=

    Name: AUG-CC-PVDZ
    Role: ORBITAL
    Keyword: BASIS
    atoms 1             entry N          line   214 file /fsx/users/francis/anaconda3/envs/poltype-dev/share/psi4/basis/aug-cc-pvdz.gbs 
    atoms 2-3, 6-12, 14 entry C          line   178 file /fsx/users/francis/anaconda3/envs/poltype-dev/share/psi4/basis/aug-cc-pvdz.gbs 
    atoms 4-5           entry F          line   286 file /fsx/users/francis/anaconda3/envs/poltype-dev/share/psi4/basis/aug-cc-pvdz.gbs 
    atoms 13            entry S          line   698 file /fsx/users/francis/anaconda3/envs/poltype-dev/share/psi4/basis/aug-cc-pvdz.gbs 
    atoms 15-16, 24     entry O          line   250 file /fsx/users/francis/anaconda3/envs/poltype-dev/share/psi4/basis/aug-cc-pvdz.gbs 
    atoms 17-23, 25-26  entry H          line    36 file /fsx/users/francis/anaconda3/envs/poltype-dev/share/psi4/basis/aug-cc-pvdz.gbs 


         ---------------------------------------------------------
                                   SCF
               by Justin Turney, Rob Parrish, Andy Simmonett
                          and Daniel G. A. Smith
                              RKS Reference
                        8 Threads,  15258 MiB Core
         ---------------------------------------------------------

  ==> Geometry <==

    Molecular point group: c1
    Full point group: C1

    Geometry (in Angstrom), charge = 0, multiplicity = 1:

       Center              X                  Y                   Z               Mass       
    ------------   -----------------  -----------------  -----------------  -----------------
         N           -1.020963240395    -1.508933153708     0.316336965535    14.003074004430
         C           -2.298072240395    -1.236752153708     0.730923965535    12.000000000000
         C           -2.751789240395     0.256319846292     0.617461965535    12.000000000000
         F           -3.843632240395     0.294471846292    -0.220100034465    18.998403162730
         F           -3.153604240395     0.663832846292     1.869950965535    18.998403162730
         C           -1.700290240395     1.291184846292     0.086074965535    12.000000000000
         C           -0.370182240395     0.776531846292    -0.312637034465    12.000000000000
         C            0.614683759605     1.663378846292    -0.800118034465    12.000000000000
         C            1.863962759605     1.190578846292    -1.220341034465    12.000000000000
         C            2.178547759605    -0.188201153708    -1.110758034465    12.000000000000
         C            1.208221759605    -1.070616153708    -0.588879034465    12.000000000000
         C           -0.058723240395    -0.606704153708    -0.194571034465    12.000000000000
         S            3.716401759605    -0.904765153708    -1.617097034465    31.972071174400
         C            4.899895759605    -0.307897153708    -0.383847034465    12.000000000000
         O           -3.016007240395    -2.130982153708     1.153858965535    15.994914619570
         O           -1.984322240395     2.482284846292     0.002217965535    15.994914619570
         H            2.577732759605     1.901067846292    -1.635967034465     1.007825032230
         H            0.365872759605     2.722688846292    -0.871296034465     1.007825032230
         H           -0.785945240395    -2.487012153708     0.418388965535     1.007825032230
         H            1.441311759605    -2.132646153708    -0.500953034465     1.007825032230
         H            5.048374759605     0.768360846292    -0.514121034465     1.007825032230
         H            4.515870759605    -0.506425153708     0.622260965535     1.007825032230
         H            5.851636759605    -0.829383153708    -0.521537034465     1.007825032230
      Gh(O)           2.591847759605     0.255724846292     2.158286965535    15.994914619570
      Gh(H)           2.177419759605     0.451284846292     1.316243965535     1.007825032230
      Gh(H)           2.522443759605     1.032287846292     2.713978965535     1.007825032230

  Running in c1 symmetry.

  Rotational constants: A =      0.02782  B =      0.00744  C =      0.00697 [cm^-1]
  Rotational constants: A =    834.13075  B =    223.00718  C =    208.98265 [MHz]
  Nuclear repulsion = 1176.846761692086147

  Charge       = 0
  Multiplicity = 1
  Electrons    = 124
  Nalpha       = 62
  Nbeta        = 62

  ==> Algorithm <==

  SCF Algorithm Type is DF.
  DIIS enabled.
  MOM disabled.
  Fractional occupation disabled.
  Guess Type is SAD.
  Energy threshold   = 1.00e-06
  Density threshold  = 1.00e-06
  Integral threshold = 0.00e+00

  ==> Primary Basis <==

  Basis Set: AUG-CC-PVDZ
    Blend: AUG-CC-PVDZ
    Number of shells: 200
    Number of basis function: 476
    Number of Cartesian functions: 510
    Spherical Harmonics?: true
    Max angular momentum: 2

  ==> DFT Potential <==

   => Composite Functional: WB97X-D <= 

    wB97X-D Hyb-GGA Exchange-Correlation Functional

    J.-D. Chai and M. Head-Gordon, Phys. Chem. Chem. Phys. 10, 6615 (2008)

    Deriv               =              1
    GGA                 =           TRUE
    Meta                =          FALSE

    Exchange Hybrid     =           TRUE
    MP2 Hybrid          =          FALSE

   => Exchange-Correlation Functionals <=

    1.0000   wB97D range-separated functional

   => Exact (HF) Exchange <=

    0.7780            HF,LR [omega = 0.2000]
    0.2220               HF 

   => Molecular Quadrature <=

    Radial Scheme          =       TREUTLER
    Pruning Scheme         =           FLAT
    Nuclear Scheme         =       TREUTLER

    BS radius alpha        =              1
    Pruning alpha          =              1
    Radial Points          =             75
    Spherical Points       =            302
    Total Points           =         588900
    Total Blocks           =           4369
    Max Points             =            256
    Max Functions          =            423

   => WB97X-D: Empirical Dispersion <=

    Chai and Head-Gordon Dispersion Correction
    Chai, J.-D.; Head-Gordon, M. (2010), J. Chem. Phys., 132: 6615-6620

        s6 =       1.000000

   => Loading Basis Set <=

    Name: (AUG-CC-PVDZ AUX)
    Role: JKFIT
    Keyword: DF_BASIS_SCF
    atoms 1             entry N          line   212 file /fsx/users/francis/anaconda3/envs/poltype-dev/share/psi4/basis/aug-cc-pvdz-jkfit.gbs 
    atoms 2-3, 6-12, 14 entry C          line   154 file /fsx/users/francis/anaconda3/envs/poltype-dev/share/psi4/basis/aug-cc-pvdz-jkfit.gbs 
    atoms 4-5           entry F          line   328 file /fsx/users/francis/anaconda3/envs/poltype-dev/share/psi4/basis/aug-cc-pvdz-jkfit.gbs 
    atoms 13            entry S          line   690 file /fsx/users/francis/anaconda3/envs/poltype-dev/share/psi4/basis/aug-cc-pvdz-jkfit.gbs 
    atoms 15-16, 24     entry O          line   270 file /fsx/users/francis/anaconda3/envs/poltype-dev/share/psi4/basis/aug-cc-pvdz-jkfit.gbs 
    atoms 17-23, 25-26  entry H          line    70 file /fsx/users/francis/anaconda3/envs/poltype-dev/share/psi4/basis/aug-cc-pvdz-jkfit.gbs 

  ==> Pre-Iterations <==

   -------------------------------------------------------
    Irrep   Nso     Nmo     Nalpha   Nbeta   Ndocc  Nsocc
   -------------------------------------------------------
     A        476     476       0       0       0       0
   -------------------------------------------------------
    Total     476     476      62      62      62       0
   -------------------------------------------------------

  ==> Integral Setup <==

  ==> DiskDFJK: Density-Fitted J/K Matrices <==

    J tasked:                  Yes
    K tasked:                  Yes
    wK tasked:                 Yes
    Omega:               2.000E-01
    OpenMP threads:              8
    Integrals threads:           8
    Memory [MiB]:             5811
    Algorithm:                Core
    Integral Cache:           NONE
    Schwarz Cutoff:          1E-12
    Fitting Condition:       1E-10

   => Auxiliary Basis Set <=

  Basis Set: (AUG-CC-PVDZ AUX)
    Blend: AUG-CC-PVDZ-JKFIT
    Number of shells: 596
    Number of basis function: 1792
    Number of Cartesian functions: 2081
    Spherical Harmonics?: true
    Max angular momentum: 3

  Cached 100.0% of DFT collocation blocks in 5.501 [GiB].

  Minimum eigenvalue in the overlap matrix is 1.2202885511E-06.
  Using Symmetric Orthogonalization.

  SCF Guess: Superposition of Atomic Densities via on-the-fly atomic UHF.

  ==> Iterations <==

                           Total Energy        Delta E     RMS |[F,P]|

   @DF-RKS iter SAD: -1187.41127546421353   -1.18741e+03   0.00000e+00 
   @DF-RKS iter   1: -1187.68172215450090   -2.70447e-01   2.22813e-03 DIIS
   @DF-RKS iter   2: -1187.69604450265524   -1.43223e-02   2.40608e-03 DIIS
   @DF-RKS iter   3: -1188.17692679046672   -4.80882e-01   5.58666e-04 DIIS
   @DF-RKS iter   4: -1188.20433221577969   -2.74054e-02   1.52503e-04 DIIS
   @DF-RKS iter   5: -1188.20674181775712   -2.40960e-03   4.32867e-05 DIIS
   @DF-RKS iter   6: -1188.20700390418597   -2.62086e-04   1.46965e-05 DIIS
   @DF-RKS iter   7: -1188.20703941575448   -3.55116e-05   5.12607e-06 DIIS
   @DF-RKS iter   8: -1188.20704861988906   -9.20413e-06   2.07325e-06 DIIS
   @DF-RKS iter   9: -1188.20705107319372   -2.45330e-06   1.23238e-06 DIIS
   @DF-RKS iter  10: -1188.20705142787187   -3.54678e-07   4.49104e-07 DIIS
  Energy and wave function converged.


  ==> Post-Iterations <==

    Orbital Energies [Eh]
    ---------------------

    Doubly Occupied:                                                      

       1A    -89.071700     2A    -24.873937     3A    -24.873135  
       4A    -19.301896     5A    -19.286944     6A    -14.536300  
       7A    -10.508502     8A    -10.454570     9A    -10.434402  
      10A    -10.407117    11A    -10.379802    12A    -10.354736  
      13A    -10.351334    14A    -10.349516    15A    -10.346471  
      16A    -10.343278    17A     -8.089077    18A     -6.038938  
      19A     -6.034775    20A     -6.027930    21A     -1.384829  
      22A     -1.328932    23A     -1.190597    24A     -1.179700  
      25A     -1.093779    26A     -0.999977    27A     -0.937887  
      28A     -0.903013    29A     -0.887696    30A     -0.866616  
      31A     -0.792971    32A     -0.765402    33A     -0.751722  
      34A     -0.740641    35A     -0.694767    36A     -0.679114  
      37A     -0.668893    38A     -0.643713    39A     -0.628180  
      40A     -0.589962    41A     -0.579076    42A     -0.567118  
      43A     -0.563475    44A     -0.556067    45A     -0.554288  
      46A     -0.552040    47A     -0.537602    48A     -0.535512  
      49A     -0.526765    50A     -0.518274    51A     -0.509842  
      52A     -0.499809    53A     -0.495013    54A     -0.478725  
      55A     -0.474020    56A     -0.441368    57A     -0.420917  
      58A     -0.397104    59A     -0.371120    60A     -0.370516  
      61A     -0.341138    62A     -0.329448  

    Virtual:                                                              

      63A     -0.055670    64A      0.007637    65A      0.021998  
      66A      0.032011    67A      0.036066    68A      0.040534  
      69A      0.044240    70A      0.056645    71A      0.059032  
      72A      0.063696    73A      0.065196    74A      0.075056  
      75A      0.079695    76A      0.082670    77A      0.087854  
      78A      0.091581    79A      0.102061    80A      0.108071  
      81A      0.110786    82A      0.113813    83A      0.116773  
      84A      0.119049    85A      0.124257    86A      0.125135  
      87A      0.133885    88A      0.134677    89A      0.136349  
      90A      0.144924    91A      0.149087    92A      0.153766  
      93A      0.155356    94A      0.157723    95A      0.162786  
      96A      0.166076    97A      0.169171    98A      0.171505  
      99A      0.172377   100A      0.176099   101A      0.181195  
     102A      0.186014   103A      0.191091   104A      0.193317  
     105A      0.199508   106A      0.203698   107A      0.205667  
     108A      0.211330   109A      0.212250   110A      0.217304  
     111A      0.222122   112A      0.225233   113A      0.230189  
     114A      0.232622   115A      0.234922   116A      0.241485  
     117A      0.245387   118A      0.250297   119A      0.253535  
     120A      0.258345   121A      0.259404   122A      0.263889  
     123A      0.269504   124A      0.273047   125A      0.274078  
     126A      0.279097   127A      0.282647   128A      0.285401  
     129A      0.287052   130A      0.291427   131A      0.298441  
     132A      0.301351   133A      0.304997   134A      0.309966  
     135A      0.318912   136A      0.320785   137A      0.326806  
     138A      0.328978   139A      0.332689   140A      0.334847  
     141A      0.337131   142A      0.341115   143A      0.349693  
     144A      0.351704   145A      0.356109   146A      0.363969  
     147A      0.365268   148A      0.366138   149A      0.367293  
     150A      0.374017   151A      0.376907   152A      0.378730  
     153A      0.385605   154A      0.391960   155A      0.393174  
     156A      0.395732   157A      0.403139   158A      0.405191  
     159A      0.414121   160A      0.416855   161A      0.419178  
     162A      0.424659   163A      0.426641   164A      0.436222  
     165A      0.440292   166A      0.447593   167A      0.451195  
     168A      0.458162   169A      0.460199   170A      0.470331  
     171A      0.478061   172A      0.481007   173A      0.486194  
     174A      0.488376   175A      0.493128   176A      0.497137  
     177A      0.503277   178A      0.505801   179A      0.516391  
     180A      0.521816   181A      0.527604   182A      0.530374  
     183A      0.534556   184A      0.540191   185A      0.543279  
     186A      0.552532   187A      0.556451   188A      0.559110  
     189A      0.566585   190A      0.572974   191A      0.579029  
     192A      0.583773   193A      0.587695   194A      0.595274  
     195A      0.601120   196A      0.607208   197A      0.613831  
     198A      0.622826   199A      0.626662   200A      0.630420  
     201A      0.633996   202A      0.636425   203A      0.638830  
     204A      0.641375   205A      0.649160   206A      0.652846  
     207A      0.655934   208A      0.658208   209A      0.663436  
     210A      0.670105   211A      0.676054   212A      0.679659  
     213A      0.685579   214A      0.690167   215A      0.697599  
     216A      0.706357   217A      0.711467   218A      0.713591  
     219A      0.719189   220A      0.726566   221A      0.731691  
     222A      0.732610   223A      0.739660   224A      0.751538  
     225A      0.755476   226A      0.760770   227A      0.768305  
     228A      0.770946   229A      0.783174   230A      0.787741  
     231A      0.791273   232A      0.799475   233A      0.805498  
     234A      0.809468   235A      0.815771   236A      0.823720  
     237A      0.833975   238A      0.842820   239A      0.845781  
     240A      0.855330   241A      0.856598   242A      0.864817  
     243A      0.877686   244A      0.885187   245A      0.892392  
     246A      0.894754   247A      0.899390   248A      0.906723  
     249A      0.919944   250A      0.931785   251A      0.933982  
     252A      0.942509   253A      0.960990   254A      0.970427  
     255A      0.976147   256A      0.980265   257A      0.989252  
     258A      0.999083   259A      1.007338   260A      1.014821  
     261A      1.022455   262A      1.039514   263A      1.048197  
     264A      1.059791   265A      1.063431   266A      1.076784  
     267A      1.090599   268A      1.093286   269A      1.100943  
     270A      1.109127   271A      1.111376   272A      1.115420  
     273A      1.125876   274A      1.142088   275A      1.146364  
     276A      1.148843   277A      1.164450   278A      1.170160  
     279A      1.183476   280A      1.187573   281A      1.204470  
     282A      1.213876   283A      1.217849   284A      1.225756  
     285A      1.230015   286A      1.251893   287A      1.259934  
     288A      1.265077   289A      1.266594   290A      1.282473  
     291A      1.289482   292A      1.291416   293A      1.301528  
     294A      1.306569   295A      1.317700   296A      1.322161  
     297A      1.338690   298A      1.340036   299A      1.352070  
     300A      1.369289   301A      1.381000   302A      1.383455  
     303A      1.391939   304A      1.398531   305A      1.414327  
     306A      1.416969   307A      1.434083   308A      1.440388  
     309A      1.447897   310A      1.463779   311A      1.467588  
     312A      1.477079   313A      1.485128   314A      1.488767  
     315A      1.502637   316A      1.516316   317A      1.532735  
     318A      1.536532   319A      1.541892   320A      1.552017  
     321A      1.556425   322A      1.563318   323A      1.569972  
     324A      1.574820   325A      1.581434   326A      1.586070  
     327A      1.606374   328A      1.611478   329A      1.615624  
     330A      1.622783   331A      1.627430   332A      1.635055  
     333A      1.643395   334A      1.648283   335A      1.654951  
     336A      1.669453   337A      1.670198   338A      1.677123  
     339A      1.691972   340A      1.693515   341A      1.713075  
     342A      1.721890   343A      1.728603   344A      1.738686  
     345A      1.743968   346A      1.766379   347A      1.782381  
     348A      1.789749   349A      1.800473   350A      1.805004  
     351A      1.819998   352A      1.831212   353A      1.833684  
     354A      1.842983   355A      1.855831   356A      1.869287  
     357A      1.875571   358A      1.880004   359A      1.895803  
     360A      1.902233   361A      1.919858   362A      1.930979  
     363A      1.938721   364A      1.942133   365A      1.947730  
     366A      1.955958   367A      1.971042   368A      1.982131  
     369A      1.985444   370A      1.996910   371A      2.010497  
     372A      2.022380   373A      2.032838   374A      2.042809  
     375A      2.050553   376A      2.067878   377A      2.075312  
     378A      2.082086   379A      2.092465   380A      2.098419  
     381A      2.106981   382A      2.129447   383A      2.136293  
     384A      2.141886   385A      2.156511   386A      2.178686  
     387A      2.180349   388A      2.190725   389A      2.200596  
     390A      2.217887   391A      2.229250   392A      2.238493  
     393A      2.242368   394A      2.262523   395A      2.295132  
     396A      2.296410   397A      2.308188   398A      2.337799  
     399A      2.346328   400A      2.349080   401A      2.366481  
     402A      2.383478   403A      2.387040   404A      2.419641  
     405A      2.422917   406A      2.444949   407A      2.462917  
     408A      2.485928   409A      2.521385   410A      2.524429  
     411A      2.541819   412A      2.552699   413A      2.556451  
     414A      2.560910   415A      2.618163   416A      2.622664  
     417A      2.664702   418A      2.673049   419A      2.692294  
     420A      2.702334   421A      2.711853   422A      2.727235  
     423A      2.743729   424A      2.755228   425A      2.787388  
     426A      2.797103   427A      2.838901   428A      2.883881  
     429A      2.951963   430A      2.984540   431A      3.035882  
     432A      3.045560   433A      3.109578   434A      3.162723  
     435A      3.185539   436A      3.365408   437A      3.409325  
     438A      3.413407   439A      3.434305   440A      3.455551  
     441A      3.477493   442A      3.504437   443A      3.523027  
     444A      3.528139   445A      3.544812   446A      3.569918  
     447A      3.604029   448A      3.626497   449A      3.704030  
     450A      3.723542   451A      3.816160   452A      3.861514  
     453A      3.890423   454A      4.008505   455A      4.155347  
     456A      4.196336   457A      4.521407   458A      4.609250  
     459A      4.646686   460A      4.681772   461A      4.718579  
     462A      4.741589   463A      4.742786   464A      4.806021  
     465A      4.840690   466A      4.848951   467A      4.897931  
     468A      4.978813   469A      5.002370   470A      5.035134  
     471A      5.295309   472A      5.528411   473A      5.904122  
     474A      6.649329   475A      7.140322   476A     33.568936  

    Final Occupation by Irrep:
              A 
    DOCC [    62 ]

  @DF-RKS Final Energy: -1188.20705142787187

   => Energetics <=

    Nuclear Repulsion Energy =           1176.8467616920861474
    One-Electron Energy =               -3968.1411527308073346
    Two-Electron Energy =                1692.6461997229237113
    DFT Exchange-Correlation Energy =     -89.5454529983542216
    Empirical Dispersion Energy =          -0.0134071137201686
    VV10 Nonlocal Energy =                  0.0000000000000000
    Total Energy =                      -1188.2070514278718747

Computation Completed


Properties will be evaluated at  -0.000000,  -0.000000,   0.000000 [a0]

Properties computed using the SCF density matrix

  Nuclear Dipole Moment: [e a0]
     X:   -19.1424      Y:    -6.7275      Z:   -40.8659

  Electronic Dipole Moment: [e a0]
     X:    21.8284      Y:     6.3892      Z:    40.6023

  Dipole Moment: [e a0]
     X:     2.6861      Y:    -0.3383      Z:    -0.2636     Total:     2.7201

  Dipole Moment: [D]
     X:     6.8273      Y:    -0.8598      Z:    -0.6699     Total:     6.9138


*** tstop() called on cpu-spot-dy-c5n2xlarge-1 at Tue Jun 22 20:29:05 2021
Module time:
	user time   =     925.73 seconds =      15.43 minutes
	system time =       8.81 seconds =       0.15 minutes
	total time  =        126 seconds =       2.10 minutes
Total time:
	user time   =    1521.51 seconds =      25.36 minutes
	system time =      16.08 seconds =       0.27 minutes
	total time  =        208 seconds =       3.47 minutes

       N-Body: Complex Energy (fragments = (1,), basis = (1, 2): -1188.20705142787187)

       N-Body: Computing complex (4/4) with fragments (1,) in the basis of fragments (1,).


*** tstart() called on cpu-spot-dy-c5n2xlarge-1
*** at Tue Jun 22 20:29:05 2021

   => Loading Basis Set <=

    Name: AUG-CC-PVDZ
    Role: ORBITAL
    Keyword: BASIS
    atoms 1             entry N          line   214 file /fsx/users/francis/anaconda3/envs/poltype-dev/share/psi4/basis/aug-cc-pvdz.gbs 
    atoms 2-3, 6-12, 14 entry C          line   178 file /fsx/users/francis/anaconda3/envs/poltype-dev/share/psi4/basis/aug-cc-pvdz.gbs 
    atoms 4-5           entry F          line   286 file /fsx/users/francis/anaconda3/envs/poltype-dev/share/psi4/basis/aug-cc-pvdz.gbs 
    atoms 13            entry S          line   698 file /fsx/users/francis/anaconda3/envs/poltype-dev/share/psi4/basis/aug-cc-pvdz.gbs 
    atoms 15-16         entry O          line   250 file /fsx/users/francis/anaconda3/envs/poltype-dev/share/psi4/basis/aug-cc-pvdz.gbs 
    atoms 17-23         entry H          line    36 file /fsx/users/francis/anaconda3/envs/poltype-dev/share/psi4/basis/aug-cc-pvdz.gbs 


         ---------------------------------------------------------
                                   SCF
               by Justin Turney, Rob Parrish, Andy Simmonett
                          and Daniel G. A. Smith
                              RKS Reference
                        8 Threads,  15258 MiB Core
         ---------------------------------------------------------

  ==> Geometry <==

    Molecular point group: c1
    Full point group: C1

    Geometry (in Angstrom), charge = 0, multiplicity = 1:

       Center              X                  Y                   Z               Mass       
    ------------   -----------------  -----------------  -----------------  -----------------
         N           -1.020963240395    -1.508933153708     0.316336965535    14.003074004430
         C           -2.298072240395    -1.236752153708     0.730923965535    12.000000000000
         C           -2.751789240395     0.256319846292     0.617461965535    12.000000000000
         F           -3.843632240395     0.294471846292    -0.220100034465    18.998403162730
         F           -3.153604240395     0.663832846292     1.869950965535    18.998403162730
         C           -1.700290240395     1.291184846292     0.086074965535    12.000000000000
         C           -0.370182240395     0.776531846292    -0.312637034465    12.000000000000
         C            0.614683759605     1.663378846292    -0.800118034465    12.000000000000
         C            1.863962759605     1.190578846292    -1.220341034465    12.000000000000
         C            2.178547759605    -0.188201153708    -1.110758034465    12.000000000000
         C            1.208221759605    -1.070616153708    -0.588879034465    12.000000000000
         C           -0.058723240395    -0.606704153708    -0.194571034465    12.000000000000
         S            3.716401759605    -0.904765153708    -1.617097034465    31.972071174400
         C            4.899895759605    -0.307897153708    -0.383847034465    12.000000000000
         O           -3.016007240395    -2.130982153708     1.153858965535    15.994914619570
         O           -1.984322240395     2.482284846292     0.002217965535    15.994914619570
         H            2.577732759605     1.901067846292    -1.635967034465     1.007825032230
         H            0.365872759605     2.722688846292    -0.871296034465     1.007825032230
         H           -0.785945240395    -2.487012153708     0.418388965535     1.007825032230
         H            1.441311759605    -2.132646153708    -0.500953034465     1.007825032230
         H            5.048374759605     0.768360846292    -0.514121034465     1.007825032230
         H            4.515870759605    -0.506425153708     0.622260965535     1.007825032230
         H            5.851636759605    -0.829383153708    -0.521537034465     1.007825032230

  Running in c1 symmetry.

  Rotational constants: A =      0.03599  B =      0.00818  C =      0.00717 [cm^-1]
  Rotational constants: A =   1079.03212  B =    245.08395  C =    214.99575 [MHz]
  Nuclear repulsion = 1176.846761692086147

  Charge       = 0
  Multiplicity = 1
  Electrons    = 124
  Nalpha       = 62
  Nbeta        = 62

  ==> Algorithm <==

  SCF Algorithm Type is DF.
  DIIS enabled.
  MOM disabled.
  Fractional occupation disabled.
  Guess Type is SAD.
  Energy threshold   = 1.00e-06
  Density threshold  = 1.00e-06
  Integral threshold = 0.00e+00

  ==> Primary Basis <==

  Basis Set: AUG-CC-PVDZ
    Blend: AUG-CC-PVDZ
    Number of shells: 181
    Number of basis function: 435
    Number of Cartesian functions: 467
    Spherical Harmonics?: true
    Max angular momentum: 2

  ==> DFT Potential <==

   => Composite Functional: WB97X-D <= 

    wB97X-D Hyb-GGA Exchange-Correlation Functional

    J.-D. Chai and M. Head-Gordon, Phys. Chem. Chem. Phys. 10, 6615 (2008)

    Deriv               =              1
    GGA                 =           TRUE
    Meta                =          FALSE

    Exchange Hybrid     =           TRUE
    MP2 Hybrid          =          FALSE

   => Exchange-Correlation Functionals <=

    1.0000   wB97D range-separated functional

   => Exact (HF) Exchange <=

    0.7780            HF,LR [omega = 0.2000]
    0.2220               HF 

   => Molecular Quadrature <=

    Radial Scheme          =       TREUTLER
    Pruning Scheme         =           FLAT
    Nuclear Scheme         =       TREUTLER

    BS radius alpha        =              1
    Pruning alpha          =              1
    Radial Points          =             75
    Spherical Points       =            302
    Total Points           =         520950
    Total Blocks           =           3901
    Max Points             =            256
    Max Functions          =            394

   => WB97X-D: Empirical Dispersion <=

    Chai and Head-Gordon Dispersion Correction
    Chai, J.-D.; Head-Gordon, M. (2010), J. Chem. Phys., 132: 6615-6620

        s6 =       1.000000

   => Loading Basis Set <=

    Name: (AUG-CC-PVDZ AUX)
    Role: JKFIT
    Keyword: DF_BASIS_SCF
    atoms 1             entry N          line   212 file /fsx/users/francis/anaconda3/envs/poltype-dev/share/psi4/basis/aug-cc-pvdz-jkfit.gbs 
    atoms 2-3, 6-12, 14 entry C          line   154 file /fsx/users/francis/anaconda3/envs/poltype-dev/share/psi4/basis/aug-cc-pvdz-jkfit.gbs 
    atoms 4-5           entry F          line   328 file /fsx/users/francis/anaconda3/envs/poltype-dev/share/psi4/basis/aug-cc-pvdz-jkfit.gbs 
    atoms 13            entry S          line   690 file /fsx/users/francis/anaconda3/envs/poltype-dev/share/psi4/basis/aug-cc-pvdz-jkfit.gbs 
    atoms 15-16         entry O          line   270 file /fsx/users/francis/anaconda3/envs/poltype-dev/share/psi4/basis/aug-cc-pvdz-jkfit.gbs 
    atoms 17-23         entry H          line    70 file /fsx/users/francis/anaconda3/envs/poltype-dev/share/psi4/basis/aug-cc-pvdz-jkfit.gbs 

  ==> Pre-Iterations <==

   -------------------------------------------------------
    Irrep   Nso     Nmo     Nalpha   Nbeta   Ndocc  Nsocc
   -------------------------------------------------------
     A        435     435       0       0       0       0
   -------------------------------------------------------
    Total     435     435      62      62      62       0
   -------------------------------------------------------

  ==> Integral Setup <==

  ==> DiskDFJK: Density-Fitted J/K Matrices <==

    J tasked:                  Yes
    K tasked:                  Yes
    wK tasked:                 Yes
    Omega:               2.000E-01
    OpenMP threads:              8
    Integrals threads:           8
    Memory [MiB]:             6813
    Algorithm:                Core
    Integral Cache:           NONE
    Schwarz Cutoff:          1E-12
    Fitting Condition:       1E-10

   => Auxiliary Basis Set <=

  Basis Set: (AUG-CC-PVDZ AUX)
    Blend: AUG-CC-PVDZ-JKFIT
    Number of shells: 544
    Number of basis function: 1642
    Number of Cartesian functions: 1910
    Spherical Harmonics?: true
    Max angular momentum: 3

  Cached 100.0% of DFT collocation blocks in 4.522 [GiB].

  Minimum eigenvalue in the overlap matrix is 1.3695621065E-06.
  Using Symmetric Orthogonalization.

  SCF Guess: Superposition of Atomic Densities via on-the-fly atomic UHF.

  ==> Iterations <==

                           Total Energy        Delta E     RMS |[F,P]|

   @DF-RKS iter SAD: -1187.41128917226047   -1.18741e+03   0.00000e+00 
   @DF-RKS iter   1: -1187.68090747321617   -2.69618e-01   2.43591e-03 DIIS
   @DF-RKS iter   2: -1187.69529968563688   -1.43922e-02   2.63273e-03 DIIS
   @DF-RKS iter   3: -1188.17633093180802   -4.81031e-01   6.10555e-04 DIIS
   @DF-RKS iter   4: -1188.20369408794318   -2.73632e-02   1.66437e-04 DIIS
   @DF-RKS iter   5: -1188.20609157380181   -2.39749e-03   4.73377e-05 DIIS
   @DF-RKS iter   6: -1188.20635342315768   -2.61849e-04   1.60709e-05 DIIS
   @DF-RKS iter   7: -1188.20638889921929   -3.54761e-05   5.60357e-06 DIIS
   @DF-RKS iter   8: -1188.20639810977809   -9.21056e-06   2.26887e-06 DIIS
   @DF-RKS iter   9: -1188.20640056650313   -2.45673e-06   1.35016e-06 DIIS
   @DF-RKS iter  10: -1188.20640092111626   -3.54613e-07   4.90101e-07 DIIS
  Energy and wave function converged.


  ==> Post-Iterations <==

    Orbital Energies [Eh]
    ---------------------

    Doubly Occupied:                                                      

       1A    -89.071709     2A    -24.873988     3A    -24.873174  
       4A    -19.302019     5A    -19.287015     6A    -14.536418  
       7A    -10.508589     8A    -10.454658     9A    -10.434548  
      10A    -10.407210    11A    -10.379641    12A    -10.354857  
      13A    -10.351396    14A    -10.349462    15A    -10.346592  
      16A    -10.343281    17A     -8.089146    18A     -6.039007  
      19A     -6.034841    20A     -6.027990    21A     -1.384885  
      22A     -1.328985    23A     -1.190674    24A     -1.179814  
      25A     -1.093900    26A     -1.000210    27A     -0.938057  
      28A     -0.903146    29A     -0.887895    30A     -0.866744  
      31A     -0.793100    32A     -0.765555    33A     -0.751856  
      34A     -0.740765    35A     -0.694916    36A     -0.679243  
      37A     -0.668948    38A     -0.643851    39A     -0.628319  
      40A     -0.590131    41A     -0.579227    42A     -0.567199  
      43A     -0.563567    44A     -0.556277    45A     -0.554366  
      46A     -0.552138    47A     -0.537672    48A     -0.535559  
      49A     -0.526853    50A     -0.518331    51A     -0.509926  
      52A     -0.499926    53A     -0.495126    54A     -0.478853  
      55A     -0.474182    56A     -0.441496    57A     -0.421036  
      58A     -0.397195    59A     -0.371276    60A     -0.370615  
      61A     -0.341268    62A     -0.329555  

    Virtual:                                                              

      63A     -0.055800    64A      0.007479    65A      0.023809  
      66A      0.032078    67A      0.036995    68A      0.042615  
      69A      0.048029    70A      0.057408    71A      0.059787  
      72A      0.064839    73A      0.073576    74A      0.078000  
      75A      0.082505    76A      0.090752    77A      0.093161  
      78A      0.102459    79A      0.105922    80A      0.111342  
      81A      0.114205    82A      0.116908    83A      0.119458  
      84A      0.122956    85A      0.127857    86A      0.133496  
      87A      0.135565    88A      0.143309    89A      0.146384  
      90A      0.152275    91A      0.154216    92A      0.157192  
      93A      0.160328    94A      0.162311    95A      0.169228  
      96A      0.171314    97A      0.173105    98A      0.177945  
      99A      0.180571   100A      0.181666   101A      0.191526  
     102A      0.194399   103A      0.196874   104A      0.205984  
     105A      0.210621   106A      0.213580   107A      0.215551  
     108A      0.223075   109A      0.224560   110A      0.230351  
     111A      0.235224   112A      0.236870   113A      0.241117  
     114A      0.245395   115A      0.249915   116A      0.253374  
     117A      0.254553   118A      0.261690   119A      0.266789  
     120A      0.269254   121A      0.275379   122A      0.278038  
     123A      0.279624   124A      0.285606   125A      0.292559  
     126A      0.293055   127A      0.299085   128A      0.304322  
     129A      0.305865   130A      0.311924   131A      0.315455  
     132A      0.320523   133A      0.322005   134A      0.328473  
     135A      0.332373   136A      0.333350   137A      0.341314  
     138A      0.343609   139A      0.348206   140A      0.354741  
     141A      0.358103   142A      0.363688   143A      0.366027  
     144A      0.367435   145A      0.376776   146A      0.379266  
     147A      0.384154   148A      0.386284   149A      0.393484  
     150A      0.394042   151A      0.398294   152A      0.403438  
     153A      0.407664   154A      0.410176   155A      0.415719  
     156A      0.422354   157A      0.429111   158A      0.432436  
     159A      0.439834   160A      0.445666   161A      0.455929  
     162A      0.463923   163A      0.465654   164A      0.475818  
     165A      0.480390   166A      0.484319   167A      0.491365  
     168A      0.493958   169A      0.497528   170A      0.506443  
     171A      0.512993   172A      0.516848   173A      0.526501  
     174A      0.529608   175A      0.534054   176A      0.540946  
     177A      0.545529   178A      0.548420   179A      0.554605  
     180A      0.562322   181A      0.570071   182A      0.580278  
     183A      0.586460   184A      0.588189   185A      0.598109  
     186A      0.603482   187A      0.609639   188A      0.615521  
     189A      0.622130   190A      0.627895   191A      0.630013  
     192A      0.632897   193A      0.642322   194A      0.644850  
     195A      0.648183   196A      0.650939   197A      0.659402  
     198A      0.661215   199A      0.663662   200A      0.669372  
     201A      0.678981   202A      0.681508   203A      0.688469  
     204A      0.694263   205A      0.701047   206A      0.706628  
     207A      0.711407   208A      0.721572   209A      0.723294  
     210A      0.734333   211A      0.741157   212A      0.749452  
     213A      0.754080   214A      0.759504   215A      0.766813  
     216A      0.769313   217A      0.779909   218A      0.784649  
     219A      0.787952   220A      0.793875   221A      0.802682  
     222A      0.807443   223A      0.812367   224A      0.818342  
     225A      0.827885   226A      0.831842   227A      0.841109  
     228A      0.843342   229A      0.849407   230A      0.858756  
     231A      0.867087   232A      0.876709   233A      0.886677  
     234A      0.891625   235A      0.905039   236A      0.916411  
     237A      0.924099   238A      0.931992   239A      0.940425  
     240A      0.952380   241A      0.966125   242A      0.970965  
     243A      0.976210   244A      0.984089   245A      0.992674  
     246A      0.999861   247A      1.008905   248A      1.021797  
     249A      1.044421   250A      1.048082   251A      1.060922  
     252A      1.064139   253A      1.083446   254A      1.087090  
     255A      1.100217   256A      1.108736   257A      1.110493  
     258A      1.116551   259A      1.134510   260A      1.143540  
     261A      1.149619   262A      1.158175   263A      1.169874  
     264A      1.175176   265A      1.191876   266A      1.208527  
     267A      1.214729   268A      1.228500   269A      1.234539  
     270A      1.253554   271A      1.261143   272A      1.264496  
     273A      1.269610   274A      1.287594   275A      1.292283  
     276A      1.296635   277A      1.302497   278A      1.316470  
     279A      1.329269   280A      1.341037   281A      1.356401  
     282A      1.372816   283A      1.374089   284A      1.380933  
     285A      1.390760   286A      1.405508   287A      1.411193  
     288A      1.429465   289A      1.440504   290A      1.441194  
     291A      1.457912   292A      1.463325   293A      1.476770  
     294A      1.479274   295A      1.498542   296A      1.503826  
     297A      1.518206   298A      1.538052   299A      1.541765  
     300A      1.549066   301A      1.557432   302A      1.560348  
     303A      1.570032   304A      1.588145   305A      1.592728  
     306A      1.595522   307A      1.601290   308A      1.610721  
     309A      1.615048   310A      1.622222   311A      1.626668  
     312A      1.639589   313A      1.654179   314A      1.654831  
     315A      1.665167   316A      1.673571   317A      1.683762  
     318A      1.698052   319A      1.699497   320A      1.706330  
     321A      1.718143   322A      1.728258   323A      1.736523  
     324A      1.738744   325A      1.756424   326A      1.771984  
     327A      1.777239   328A      1.789933   329A      1.802527  
     330A      1.819921   331A      1.823747   332A      1.836877  
     333A      1.853103   334A      1.860315   335A      1.869377  
     336A      1.874037   337A      1.888853   338A      1.909077  
     339A      1.916756   340A      1.925323   341A      1.932665  
     342A      1.944140   343A      1.949414   344A      1.957213  
     345A      1.969438   346A      1.977964   347A      1.983049  
     348A      1.994291   349A      2.005269   350A      2.013536  
     351A      2.032470   352A      2.037848   353A      2.051644  
     354A      2.060941   355A      2.070042   356A      2.083770  
     357A      2.093481   358A      2.102093   359A      2.123352  
     360A      2.126311   361A      2.135714   362A      2.153845  
     363A      2.158541   364A      2.175349   365A      2.177235  
     366A      2.200588   367A      2.216894   368A      2.225749  
     369A      2.228888   370A      2.236969   371A      2.287543  
     372A      2.292518   373A      2.299266   374A      2.330669  
     375A      2.336034   376A      2.347106   377A      2.354423  
     378A      2.368524   379A      2.385709   380A      2.415191  
     381A      2.430509   382A      2.451313   383A      2.476680  
     384A      2.517907   385A      2.524419   386A      2.537572  
     387A      2.556497   388A      2.598017   389A      2.611447  
     390A      2.663543   391A      2.665426   392A      2.673175  
     393A      2.695384   394A      2.695933   395A      2.712164  
     396A      2.745402   397A      2.752854   398A      2.787447  
     399A      2.857930   400A      2.946420   401A      2.977716  
     402A      3.024807   403A      3.036570   404A      3.100575  
     405A      3.135948   406A      3.168012   407A      3.353759  
     408A      3.400470   409A      3.407158   410A      3.407919  
     411A      3.452591   412A      3.466688   413A      3.475281  
     414A      3.502215   415A      3.525190   416A      3.534066  
     417A      3.567067   418A      3.610563   419A      3.687785  
     420A      3.702685   421A      3.811034   422A      3.848912  
     423A      3.874704   424A      4.129968   425A      4.479518  
     426A      4.608317   427A      4.645322   428A      4.680122  
     429A      4.717197   430A      4.740458   431A      4.741844  
     432A      4.797160   433A      4.838951   434A      4.844663  
     435A      4.897423  

    Final Occupation by Irrep:
              A 
    DOCC [    62 ]

  @DF-RKS Final Energy: -1188.20640092111626

   => Energetics <=

    Nuclear Repulsion Energy =           1176.8467616920861474
    One-Electron Energy =               -3968.1279789987102049
    Two-Electron Energy =                1692.6331573973704963
    DFT Exchange-Correlation Energy =     -89.5449338981426024
    Empirical Dispersion Energy =          -0.0134071137201686
    VV10 Nonlocal Energy =                  0.0000000000000000
    Total Energy =                      -1188.2064009211162556

Computation Completed


Properties will be evaluated at  -0.359203,  -0.043433,  -0.300029 [a0]

Properties computed using the SCF density matrix

  Nuclear Dipole Moment: [e a0]
     X:    25.3988      Y:    -1.3417      Z:    -3.6623

  Electronic Dipole Moment: [e a0]
     X:   -22.7138      Y:     1.0033      Z:     3.3986

  Dipole Moment: [e a0]
     X:     2.6850      Y:    -0.3384      Z:    -0.2637     Total:     2.7191

  Dipole Moment: [D]
     X:     6.8246      Y:    -0.8602      Z:    -0.6702     Total:     6.9111


*** tstop() called on cpu-spot-dy-c5n2xlarge-1 at Tue Jun 22 20:30:38 2021
Module time:
	user time   =     695.93 seconds =      11.60 minutes
	system time =       7.37 seconds =       0.12 minutes
	total time  =         93 seconds =       1.55 minutes
Total time:
	user time   =    2217.49 seconds =      36.96 minutes
	system time =      23.46 seconds =       0.39 minutes
	total time  =        301 seconds =       5.02 minutes

       N-Body: Complex Energy (fragments = (1,), basis = (1,): -1188.20640092111626)

   ==> N-Body: Now computing 2-body complexes <==


       N-Body: Computing complex (1/1) with fragments (1, 2) in the basis of fragments (1, 2).


*** tstart() called on cpu-spot-dy-c5n2xlarge-1
*** at Tue Jun 22 20:30:38 2021

   => Loading Basis Set <=

    Name: AUG-CC-PVDZ
    Role: ORBITAL
    Keyword: BASIS
    atoms 1             entry N          line   214 file /fsx/users/francis/anaconda3/envs/poltype-dev/share/psi4/basis/aug-cc-pvdz.gbs 
    atoms 2-3, 6-12, 14 entry C          line   178 file /fsx/users/francis/anaconda3/envs/poltype-dev/share/psi4/basis/aug-cc-pvdz.gbs 
    atoms 4-5           entry F          line   286 file /fsx/users/francis/anaconda3/envs/poltype-dev/share/psi4/basis/aug-cc-pvdz.gbs 
    atoms 13            entry S          line   698 file /fsx/users/francis/anaconda3/envs/poltype-dev/share/psi4/basis/aug-cc-pvdz.gbs 
    atoms 15-16, 24     entry O          line   250 file /fsx/users/francis/anaconda3/envs/poltype-dev/share/psi4/basis/aug-cc-pvdz.gbs 
    atoms 17-23, 25-26  entry H          line    36 file /fsx/users/francis/anaconda3/envs/poltype-dev/share/psi4/basis/aug-cc-pvdz.gbs 


         ---------------------------------------------------------
                                   SCF
               by Justin Turney, Rob Parrish, Andy Simmonett
                          and Daniel G. A. Smith
                              RKS Reference
                        8 Threads,  15258 MiB Core
         ---------------------------------------------------------

  ==> Geometry <==

    Molecular point group: c1
    Full point group: C1

    Geometry (in Angstrom), charge = 0, multiplicity = 1:

       Center              X                  Y                   Z               Mass       
    ------------   -----------------  -----------------  -----------------  -----------------
         N           -1.020963240395    -1.508933153708     0.316336965535    14.003074004430
         C           -2.298072240395    -1.236752153708     0.730923965535    12.000000000000
         C           -2.751789240395     0.256319846292     0.617461965535    12.000000000000
[...]
         H            5.048374759605     0.768360846292    -0.514121034465     1.007825032230
         H            4.515870759605    -0.506425153708     0.622260965535     1.007825032230
         H            5.851636759605    -0.829383153708    -0.521537034465     1.007825032230
         O            2.591847759605     0.255724846292     2.158286965535    15.994914619570
         H            2.177419759605     0.451284846292     1.316243965535     1.007825032230
         H            2.522443759605     1.032287846292     2.713978965535     1.007825032230

  Running in c1 symmetry.

  Rotational constants: A =      0.02782  B =      0.00744  C =      0.00697 [cm^-1]
  Rotational constants: A =    834.13075  B =    223.00718  C =    208.98265 [MHz]
  Nuclear repulsion = 1336.051714934046913

  Charge       = 0
  Multiplicity = 1
  Electrons    = 134
  Nalpha       = 67
  Nbeta        = 67

  ==> Algorithm <==

  SCF Algorithm Type is DF.
  DIIS enabled.
  MOM disabled.
  Fractional occupation disabled.
  Guess Type is SAD.
  Energy threshold   = 1.00e-06
  Density threshold  = 1.00e-06
  Integral threshold = 0.00e+00

  ==> Primary Basis <==

  Basis Set: AUG-CC-PVDZ
    Blend: AUG-CC-PVDZ
    Number of shells: 200
    Number of basis function: 476
    Number of Cartesian functions: 510
    Spherical Harmonics?: true
    Max angular momentum: 2

  ==> DFT Potential <==

   => Composite Functional: WB97X-D <= 

    wB97X-D Hyb-GGA Exchange-Correlation Functional

    J.-D. Chai and M. Head-Gordon, Phys. Chem. Chem. Phys. 10, 6615 (2008)

    Deriv               =              1
    GGA                 =           TRUE
    Meta                =          FALSE

    Exchange Hybrid     =           TRUE
    MP2 Hybrid          =          FALSE

   => Exchange-Correlation Functionals <=

    1.0000   wB97D range-separated functional

   => Exact (HF) Exchange <=

    0.7780            HF,LR [omega = 0.2000]
    0.2220               HF 

   => Molecular Quadrature <=

    Radial Scheme          =       TREUTLER
    Pruning Scheme         =           FLAT
    Nuclear Scheme         =       TREUTLER

    BS radius alpha        =              1
    Pruning alpha          =              1
    Radial Points          =             75
    Spherical Points       =            302
    Total Points           =         588900
    Total Blocks           =           4369
    Max Points             =            256
    Max Functions          =            423

   => WB97X-D: Empirical Dispersion <=

    Chai and Head-Gordon Dispersion Correction
    Chai, J.-D.; Head-Gordon, M. (2010), J. Chem. Phys., 132: 6615-6620

        s6 =       1.000000

   => Loading Basis Set <=

    Name: (AUG-CC-PVDZ AUX)
    Role: JKFIT
    Keyword: DF_BASIS_SCF
    atoms 1             entry N          line   212 file /fsx/users/francis/anaconda3/envs/poltype-dev/share/psi4/basis/aug-cc-pvdz-jkfit.gbs 
    atoms 2-3, 6-12, 14 entry C          line   154 file /fsx/users/francis/anaconda3/envs/poltype-dev/share/psi4/basis/aug-cc-pvdz-jkfit.gbs 
    atoms 4-5           entry F          line   328 file /fsx/users/francis/anaconda3/envs/poltype-dev/share/psi4/basis/aug-cc-pvdz-jkfit.gbs 
    atoms 13            entry S          line   690 file /fsx/users/francis/anaconda3/envs/poltype-dev/share/psi4/basis/aug-cc-pvdz-jkfit.gbs 
    atoms 15-16, 24     entry O          line   270 file /fsx/users/francis/anaconda3/envs/poltype-dev/share/psi4/basis/aug-cc-pvdz-jkfit.gbs 
    atoms 17-23, 25-26  entry H          line    70 file /fsx/users/francis/anaconda3/envs/poltype-dev/share/psi4/basis/aug-cc-pvdz-jkfit.gbs 

  ==> Pre-Iterations <==

   -------------------------------------------------------
    Irrep   Nso     Nmo     Nalpha   Nbeta   Ndocc  Nsocc
   -------------------------------------------------------
     A        476     476       0       0       0       0
   -------------------------------------------------------
    Total     476     476      67      67      67       0
   -------------------------------------------------------

  ==> Integral Setup <==

  ==> DiskDFJK: Density-Fitted J/K Matrices <==

    J tasked:                  Yes
    K tasked:                  Yes
    wK tasked:                 Yes
    Omega:               2.000E-01
    OpenMP threads:              8
    Integrals threads:           8
    Memory [MiB]:             5811
    Algorithm:                Core
    Integral Cache:           NONE
    Schwarz Cutoff:          1E-12
    Fitting Condition:       1E-10

   => Auxiliary Basis Set <=

  Basis Set: (AUG-CC-PVDZ AUX)
    Blend: AUG-CC-PVDZ-JKFIT
    Number of shells: 596
    Number of basis function: 1792
    Number of Cartesian functions: 2081
    Spherical Harmonics?: true
    Max angular momentum: 3

  Cached 100.0% of DFT collocation blocks in 5.501 [GiB].

  Minimum eigenvalue in the overlap matrix is 1.2202885511E-06.
  Using Symmetric Orthogonalization.

  SCF Guess: Superposition of Atomic Densities via on-the-fly atomic UHF.

  ==> Iterations <==

                           Total Energy        Delta E     RMS |[F,P]|

   @DF-RKS iter SAD: -1263.52413448094580   -1.26352e+03   0.00000e+00 
   @DF-RKS iter   1: -1263.98439796437106   -4.60263e-01   2.54380e-03 DIIS
   @DF-RKS iter   2: -1263.96303347635626    2.13645e-02   2.79611e-03 DIIS
   @DF-RKS iter   3: -1264.60235423306494   -6.39321e-01   5.53054e-04 DIIS
   @DF-RKS iter   4: -1264.62857916128269   -2.62249e-02   1.86189e-04 DIIS
   @DF-RKS iter   5: -1264.63182907048167   -3.24991e-03   5.21290e-05 DIIS
   @DF-RKS iter   6: -1264.63214866353337   -3.19593e-04   1.52877e-05 DIIS
   @DF-RKS iter   7: -1264.63219025790590   -4.15944e-05   5.23355e-06 DIIS
   @DF-RKS iter   8: -1264.63220021878510   -9.96088e-06   2.22462e-06 DIIS
   @DF-RKS iter   9: -1264.63220293762265   -2.71884e-06   1.38875e-06 DIIS
   @DF-RKS iter  10: -1264.63220342091540   -4.83293e-07   4.64036e-07 DIIS
  Energy and wave function converged.


  ==> Post-Iterations <==

    Orbital Energies [Eh]
    ---------------------

    Doubly Occupied:                                                      

       1A    -89.070989     2A    -24.876503     3A    -24.875643  
       4A    -19.306279     5A    -19.289185     6A    -19.288268  
       7A    -14.538824     8A    -10.511394     9A    -10.456893  
      10A    -10.438641    11A    -10.412166    12A    -10.384285  
      13A    -10.360215    14A    -10.357521    15A    -10.353879  
      16A    -10.349109    17A    -10.339821    18A     -8.088397  
      19A     -6.038278    20A     -6.034070    21A     -6.027248  
      22A     -1.387370    23A     -1.331444    24A     -1.192756  
      25A     -1.183991    26A     -1.131263    27A     -1.096709  
      28A     -1.005687    29A     -0.940589    30A     -0.905364  
      31A     -0.892412    32A     -0.868121    33A     -0.794066  
      34A     -0.769109    35A     -0.755175    36A     -0.742064  
      37A     -0.698771    38A     -0.682331    39A     -0.671455  
      40A     -0.647594    41A     -0.645511    42A     -0.631893  
      43A     -0.594143    44A     -0.582697    45A     -0.569614  
      46A     -0.565478    47A     -0.560720    48A     -0.557196  
      49A     -0.554116    50A     -0.538454    51A     -0.530899  
      52A     -0.526436    53A     -0.520857    54A     -0.513983  
      55A     -0.502819    56A     -0.499038    57A     -0.489432  
      58A     -0.480421    59A     -0.477998    60A     -0.443169  
      61A     -0.425157    62A     -0.416534    63A     -0.399941  
      64A     -0.375665    65A     -0.373961    66A     -0.345093  
      67A     -0.329633  

    Virtual:                                                              

      68A     -0.060032    69A      0.002814    70A      0.022787  
      71A      0.032684    72A      0.033794    73A      0.040746  
      74A      0.042472    75A      0.055430    76A      0.057706  
      77A      0.062441    78A      0.068023    79A      0.076972  
      80A      0.079167    81A      0.086385    82A      0.087713  
      83A      0.091541    84A      0.102457    85A      0.106313  
      86A      0.111783    87A      0.112385    88A      0.115875  
      89A      0.118828    90A      0.125017    91A      0.128852  
      92A      0.133017    93A      0.133994    94A      0.138776  
      95A      0.145045    96A      0.148869    97A      0.153701  
      98A      0.155249    99A      0.158104   100A      0.160470  
     101A      0.166457   102A      0.169542   103A      0.171131  
     104A      0.173226   105A      0.176957   106A      0.181650  
     107A      0.185417   108A      0.192344   109A      0.194981  
     110A      0.198635   111A      0.205895   112A      0.207276  
     113A      0.211116   114A      0.211649   115A      0.214703  
     116A      0.219414   117A      0.224782   118A      0.226050  
     119A      0.230862   120A      0.234263   121A      0.236683  
     122A      0.243002   123A      0.249331   124A      0.251333  
     125A      0.252788   126A      0.258448   127A      0.260920  
     128A      0.264787   129A      0.267884   130A      0.271832  
     131A      0.275980   132A      0.279878   133A      0.283162  
     134A      0.285200   135A      0.289284   136A      0.290790  
     137A      0.296646   138A      0.305635   139A      0.308950  
     140A      0.315217   141A      0.318846   142A      0.320264  
     143A      0.324735   144A      0.328836   145A      0.331755  
     146A      0.336404   147A      0.336779   148A      0.342300  
     149A      0.348718   150A      0.349782   151A      0.356177  
     152A      0.360376   153A      0.364535   154A      0.367911  
     155A      0.371798   156A      0.374092   157A      0.377385  
     158A      0.383788   159A      0.388014   160A      0.390984  
     161A      0.394051   162A      0.397146   163A      0.397595  
     164A      0.403441   165A      0.412966   166A      0.419994  
     167A      0.421594   168A      0.424970   169A      0.428641  
     170A      0.430439   171A      0.437089   172A      0.447675  
     173A      0.451480   174A      0.459725   175A      0.460208  
     176A      0.462669   177A      0.472046   178A      0.479196  
     179A      0.480444   180A      0.482054   181A      0.494741  
     182A      0.499451   183A      0.504938   184A      0.512542  
     185A      0.516381   186A      0.521529   187A      0.523698  
     188A      0.532983   189A      0.536311   190A      0.538553  
     191A      0.545158   192A      0.548752   193A      0.557529  
     194A      0.558219   195A      0.562073   196A      0.575415  
     197A      0.579657   198A      0.585792   199A      0.589422  
     200A      0.595988   201A      0.604350   202A      0.613441  
     203A      0.615097   204A      0.621323   205A      0.624983  
     206A      0.628272   207A      0.634379   208A      0.636785  
     209A      0.639239   210A      0.643858   211A      0.648435  
     212A      0.651872   213A      0.659296   214A      0.665777  
     215A      0.672329   216A      0.673057   217A      0.675869  
     218A      0.681624   219A      0.686948   220A      0.691227  
     221A      0.697569   222A      0.704145   223A      0.712760  
     224A      0.717908   225A      0.720182   226A      0.723629  
     227A      0.729058   228A      0.737049   229A      0.743167  
     230A      0.750224   231A      0.753418   232A      0.761801  
     233A      0.766447   234A      0.769400   235A      0.780275  
     236A      0.785191   237A      0.792342   238A      0.801628  
     239A      0.804279   240A      0.807052   241A      0.815390  
     242A      0.822487   243A      0.828663   244A      0.834952  
     245A      0.845301   246A      0.854380   247A      0.860832  
     248A      0.867432   249A      0.875200   250A      0.875470  
     251A      0.883775   252A      0.898087   253A      0.905536  
     254A      0.918394   255A      0.921221   256A      0.929529  
     257A      0.942039   258A      0.945994   259A      0.959355  
     260A      0.967423   261A      0.968459   262A      0.975008  
     263A      0.985291   264A      0.991518   265A      0.997812  
     266A      1.010308   267A      1.016343   268A      1.026154  
     269A      1.045514   270A      1.055205   271A      1.058227  
     272A      1.064107   273A      1.079606   274A      1.086441  
     275A      1.096436   276A      1.101484   277A      1.105964  
     278A      1.116755   279A      1.118859   280A      1.125001  
     281A      1.142591   282A      1.147147   283A      1.149816  
     284A      1.163867   285A      1.171655   286A      1.182130  
     287A      1.186761   288A      1.206304   289A      1.213327  
     290A      1.219745   291A      1.225973   292A      1.240915  
     293A      1.247985   294A      1.256867   295A      1.266999  
     296A      1.276472   297A      1.282350   298A      1.287936  
     299A      1.300021   300A      1.305257   301A      1.310755  
     302A      1.317803   303A      1.334138   304A      1.338926  
     305A      1.347122   306A      1.369562   307A      1.370711  
     308A      1.384546   309A      1.392111   310A      1.402752  
     311A      1.408219   312A      1.420917   313A      1.428962  
     314A      1.436258   315A      1.452007   316A      1.464666  
     317A      1.468660   318A      1.480974   319A      1.495038  
     320A      1.497216   321A      1.502359   322A      1.517710  
     323A      1.525472   324A      1.536285   325A      1.545048  
     326A      1.546491   327A      1.556005   328A      1.563969  
     329A      1.568957   330A      1.577356   331A      1.588205  
     332A      1.598771   333A      1.606782   334A      1.608937  
     335A      1.618533   336A      1.625793   337A      1.631675  
     338A      1.637665   339A      1.646339   340A      1.655498  
     341A      1.666007   342A      1.668311   343A      1.678982  
     344A      1.689376   345A      1.692669   346A      1.709437  
     347A      1.713281   348A      1.724908   349A      1.732760  
     350A      1.736580   351A      1.763178   352A      1.777078  
     353A      1.781724   354A      1.796242   355A      1.804332  
     356A      1.816251   357A      1.824523   358A      1.829195  
     359A      1.839756   360A      1.851029   361A      1.858055  
     362A      1.871087   363A      1.878849   364A      1.885090  
     365A      1.898489   366A      1.914353   367A      1.918467  
     368A      1.929843   369A      1.937565   370A      1.945303  
     371A      1.949501   372A      1.954151   373A      1.963755  
     374A      1.976492   375A      1.980768   376A      1.995107  
     377A      2.002603   378A      2.010122   379A      2.021540  
     380A      2.035671   381A      2.039304   382A      2.050627  
     383A      2.064132   384A      2.075442   385A      2.080780  
     386A      2.090889   387A      2.096299   388A      2.103377  
     389A      2.118338   390A      2.127846   391A      2.132629  
     392A      2.153933   393A      2.158846   394A      2.176269  
     395A      2.180011   396A      2.190578   397A      2.205385  
     398A      2.220704   399A      2.227943   400A      2.236522  
     401A      2.241514   402A      2.284488   403A      2.291514  
     404A      2.300439   405A      2.316091   406A      2.332363  
     407A      2.347715   408A      2.349772   409A      2.360538  
     410A      2.371444   411A      2.386117   412A      2.397122  
     413A      2.423314   414A      2.431868   415A      2.453849  
     416A      2.483397   417A      2.520295   418A      2.527386  
     419A      2.539363   420A      2.557209   421A      2.587607  
     422A      2.612684   423A      2.633097   424A      2.664506  
     425A      2.671502   426A      2.686128   427A      2.695994  
     428A      2.711289   429A      2.733073   430A      2.748788  
     431A      2.772455   432A      2.776314   433A      2.819597  
     434A      2.878486   435A      2.904246   436A      2.949084  
     437A      2.980853   438A      3.028847   439A      3.040874  
     440A      3.106287   441A      3.155988   442A      3.181753  
     443A      3.361522   444A      3.403981   445A      3.408642  
     446A      3.424260   447A      3.452487   448A      3.459608  
     449A      3.473079   450A      3.477366   451A      3.488629  
     452A      3.504339   453A      3.526005   454A      3.538330  
     455A      3.544440   456A      3.570186   457A      3.613755  
     458A      3.701234   459A      3.711394   460A      3.812569  
     461A      3.831350   462A      3.857594   463A      3.887397  
     464A      4.077326   465A      4.175696   466A      4.508334  
     467A      4.606782   468A      4.644257   469A      4.679445  
     470A      4.716200   471A      4.739233   472A      4.740369  
     473A      4.802609   474A      4.838303   475A      4.846159  
     476A      4.895620  

    Final Occupation by Irrep:
              A 
    DOCC [    67 ]

  @DF-RKS Final Energy: -1264.63220342091540

   => Energetics <=

    Nuclear Repulsion Energy =           1336.0517149340469132
    One-Electron Energy =               -4390.7290655374508788
    Two-Electron Energy =                1886.0901623058880432
    DFT Exchange-Correlation Energy =     -96.0278932543643862
    Empirical Dispersion Energy =          -0.0171218690349682
    VV10 Nonlocal Energy =                  0.0000000000000000
    Total Energy =                      -1264.6322034209156300

Computation Completed


Properties will be evaluated at  -0.000000,  -0.000000,   0.000000 [a0]

Properties computed using the SCF density matrix

  Nuclear Dipole Moment: [e a0]
     X:    28.9222      Y:    -0.0579      Z:    -0.6213

  Electronic Dipole Moment: [e a0]
     X:   -26.5850      Y:     0.2183      Z:     0.1946

  Dipole Moment: [e a0]
     X:     2.3371      Y:     0.1604      Z:    -0.4266     Total:     2.3812

  Dipole Moment: [D]
     X:     5.9404      Y:     0.4077      Z:    -1.0844     Total:     6.0523


*** tstop() called on cpu-spot-dy-c5n2xlarge-1 at Tue Jun 22 20:32:45 2021
Module time:
	user time   =     935.60 seconds =      15.59 minutes
	system time =       8.96 seconds =       0.15 minutes
	total time  =        127 seconds =       2.12 minutes
Total time:
	user time   =    3153.14 seconds =      52.55 minutes
	system time =      32.42 seconds =       0.54 minutes
	total time  =        428 seconds =       7.13 minutes

       N-Body: Complex Energy (fragments = (1, 2), basis = (1, 2): -1264.63220342091540)

   ==> N-Body: Counterpoise Corrected (CP) energies <==

   n-Body     Total Energy [Eh]       I.E. [kcal/mol]      Delta [kcal/mol]
        1    -1264.625869504415        0.000000000000        0.000000000000
        2    -1264.631072945126       -3.265208342571       -3.265208342571

   => Loading Basis Set <=

    Name: DEF2-SVP
    Role: ORBITAL
    Keyword: BASIS
    atoms 1             entry N          line   110 file /fsx/users/francis/anaconda3/envs/poltype-dev/share/psi4/basis/def2-svp.gbs 
    atoms 2-3, 6-12, 14 entry C          line    90 file /fsx/users/francis/anaconda3/envs/poltype-dev/share/psi4/basis/def2-svp.gbs 
    atoms 4-5           entry F          line   150 file /fsx/users/francis/anaconda3/envs/poltype-dev/share/psi4/basis/def2-svp.gbs 
    atoms 13            entry S          line   328 file /fsx/users/francis/anaconda3/envs/poltype-dev/share/psi4/basis/def2-svp.gbs 
    atoms 15-16, 24     entry O          line   130 file /fsx/users/francis/anaconda3/envs/poltype-dev/share/psi4/basis/def2-svp.gbs 
    atoms 17-23, 25-26  entry H          line    15 file /fsx/users/francis/anaconda3/envs/poltype-dev/share/psi4/basis/def2-svp.gbs 

CP Energy =  -0.005203
    Psi4 stopped on: Tuesday, 22 June 2021 08:32PM
    Psi4 wall time for execution: 0:07:08.26

*** Psi4 exiting successfully. Buy a developer a beer!
