
    -----------------------------------------------------------------------
          Psi4: An Open-Source Ab Initio Electronic Structure Package
                               Psi4 1.3.2 release

                         Git: Rev {HEAD} ecbda83 


    R. M. Parrish, L. A. Burns, D. G. A. Smith, A. C. Simmonett,
    A. E. DePrince III, E. G. Hohenstein, U. Bozkaya, A. Yu. Sokolov,
    R. Di Remigio, R. M. Richard, J. F. Gonthier, A. M. James,
    H. R. McAlexander, A. Kumar, M. Saitow, X. Wang, B. P. Pritchard,
    P. Verma, H. F. Schaefer III, K. Patkowski, R. A. King, E. F. Valeev,
    F. A. Evangelista, J. M. Turney, T. D. Crawford, and C. D. Sherrill,
    J. Chem. Theory Comput. 13(7) pp 3185--3197 (2017).
    (doi: 10.1021/acs.jctc.7b00174)


                         Additional Contributions by
    P. Kraus, H. Kruse, M. H. Lechner, M. C. Schieber, R. A. Shaw,
    A. Alenaizan, R. Galvelis, Z. L. Glick, S. Lehtola, and J. P. Misiewicz

    -----------------------------------------------------------------------


    Psi4 started on: Tuesday, 22 June 2021 02:27PM

    Process ID: 20269
    Host:       cpu-spot-dy-c5n2xlarge-1
    PSIDATADIR: /fsx/users/francis/anaconda3/envs/poltype-dev/share/psi4
    Memory:     500.0 MiB
    Threads:    1
    
  ==> Input File <==

--------------------------------------------------------------------------
molecule { 
0 1
  N                 -0.8664290    -1.2589580    -0.1536890
  C                 -2.1480460    -0.9706410     0.2378410
  C                 -2.4007690     0.5145350     0.6579700
  F                 -3.6850840     0.8694240     0.2915950
  F                 -2.3353680     0.5658950     2.0315300
  C                 -1.3937820     1.5693870     0.0855650
  C                 -0.0656290     1.0595950    -0.3300500
  C                  0.9465510     1.9559480    -0.7385460
  C                  2.2136610     1.4889290    -1.1106430
  C                  2.4907560     0.0971820    -1.1056990
  C                  1.4623780    -0.8043860    -0.7556460
  C                  0.1875990    -0.3407930    -0.3880530
  S                  4.0542370    -0.6049660    -1.5424950
  C                  5.0346590    -0.4289270    -0.0306500
  O                 -3.0063170    -1.8468130     0.2574760
  O                 -1.6655360     2.7669320     0.0871550
  H                  2.9744450     2.2152280    -1.3953660
  H                  0.7201870     3.0225720    -0.7441760
  H                 -0.7355770    -2.2367310    -0.3731030
  H                  1.6634470    -1.8765260    -0.7569760
  H                  5.2834860     0.6263530     0.1168130
  H                  4.4568290    -0.7941620     0.8239960
  H                  5.9530340    -1.0151490    -0.1306800
--
0 1
  O                 -3.1329091    -0.3324094    -2.6268792
  H                 -3.5281731    -1.0694034    -2.1535172
  H                 -3.8308171     0.2910026    -2.8336032
}
memory 16GB
set_num_threads(8)
psi4_io.set_default_path("/scratch/Psi4-ligand")
set maxiter 500
set freeze_core True
set PROPERTIES_ORIGIN ["COM"]
e_dim= energy('wb97x-d/aug-cc-pVDZ',bsse_type='cp')

psi4.print_out('CP Energy = %10.6f' % (e_dim))
clean()
--------------------------------------------------------------------------

  Memory set to  14.901 GiB by Python driver.
  Threads set to 8 by Python driver.


   ===> N-Body Interaction Abacus <===
        BSSE Treatment:                     cp
        Number of 1-body computations:     4
        Number of 2-body computations:     1

   ==> N-Body: Now computing 1-body complexes <==


       N-Body: Computing complex (1/4) with fragments (2,) in the basis of fragments (2,).


*** tstart() called on cpu-spot-dy-c5n2xlarge-1
*** at Tue Jun 22 14:27:20 2021

   => Loading Basis Set <=

    Name: AUG-CC-PVDZ
    Role: ORBITAL
    Keyword: BASIS
    atoms 1   entry O          line   250 file /fsx/users/francis/anaconda3/envs/poltype-dev/share/psi4/basis/aug-cc-pvdz.gbs 
    atoms 2-3 entry H          line    36 file /fsx/users/francis/anaconda3/envs/poltype-dev/share/psi4/basis/aug-cc-pvdz.gbs 


         ---------------------------------------------------------
                                   SCF
               by Justin Turney, Rob Parrish, Andy Simmonett
                          and Daniel G. A. Smith
                              RKS Reference
                        8 Threads,  15258 MiB Core
         ---------------------------------------------------------

  ==> Geometry <==

    Molecular point group: c1
    Full point group: C1

    Geometry (in Angstrom), charge = 0, multiplicity = 1:

       Center              X                  Y                   Z               Mass       
    ------------   -----------------  -----------------  -----------------  -----------------
         O           -3.007485318430    -0.518384021402    -2.270297890486    15.994914619570
         H           -3.402749318430    -1.255378021402    -1.796935890486     1.007825032230
         H           -3.705393318430     0.105027978598    -2.477021890486     1.007825032230

  Running in c1 symmetry.

  Rotational constants: A =     11.70824  B =      0.06318  C =      0.06298 [cm^-1]
  Rotational constants: A = 351004.09979  B =   1894.09455  C =   1888.15954 [MHz]
  Nuclear repulsion =    9.163953061555418

  Charge       = 0
  Multiplicity = 1
  Electrons    = 10
  Nalpha       = 5
  Nbeta        = 5

  ==> Algorithm <==

  SCF Algorithm Type is DF.
  DIIS enabled.
  MOM disabled.
  Fractional occupation disabled.
  Guess Type is SAD.
  Energy threshold   = 1.00e-06
  Density threshold  = 1.00e-06
  Integral threshold = 0.00e+00

  ==> Primary Basis <==

  Basis Set: AUG-CC-PVDZ
    Blend: AUG-CC-PVDZ
    Number of shells: 19
    Number of basis function: 41
    Number of Cartesian functions: 43
    Spherical Harmonics?: true
    Max angular momentum: 2

  ==> DFT Potential <==

   => Composite Functional: WB97X-D <= 

    wB97X-D Hyb-GGA Exchange-Correlation Functional

    J.-D. Chai and M. Head-Gordon, Phys. Chem. Chem. Phys. 10, 6615 (2008)

    Deriv               =              1
    GGA                 =           TRUE
    Meta                =          FALSE

    Exchange Hybrid     =           TRUE
    MP2 Hybrid          =          FALSE

   => Exchange-Correlation Functionals <=

    1.0000   wB97D range-separated functional

   => Exact (HF) Exchange <=

    0.7780            HF,LR [omega = 0.2000]
    0.2220               HF 

   => Molecular Quadrature <=

    Radial Scheme          =       TREUTLER
    Pruning Scheme         =           FLAT
    Nuclear Scheme         =       TREUTLER

    BS radius alpha        =              1
    Pruning alpha          =              1
    Radial Points          =             75
    Spherical Points       =            302
    Total Points           =          67950
    Total Blocks           =            574
    Max Points             =            255
    Max Functions          =             41

   => WB97X-D: Empirical Dispersion <=

    Chai and Head-Gordon Dispersion Correction
    Chai, J.-D.; Head-Gordon, M. (2010), J. Chem. Phys., 132: 6615-6620

        s6 =       1.000000

   => Loading Basis Set <=

    Name: (AUG-CC-PVDZ AUX)
    Role: JKFIT
    Keyword: DF_BASIS_SCF
    atoms 1   entry O          line   270 file /fsx/users/francis/anaconda3/envs/poltype-dev/share/psi4/basis/aug-cc-pvdz-jkfit.gbs 
    atoms 2-3 entry H          line    70 file /fsx/users/francis/anaconda3/envs/poltype-dev/share/psi4/basis/aug-cc-pvdz-jkfit.gbs 

  ==> Pre-Iterations <==

   -------------------------------------------------------
    Irrep   Nso     Nmo     Nalpha   Nbeta   Ndocc  Nsocc
   -------------------------------------------------------
     A         41      41       0       0       0       0
   -------------------------------------------------------
    Total      41      41       5       5       5       0
   -------------------------------------------------------

  ==> Integral Setup <==

  ==> DiskDFJK: Density-Fitted J/K Matrices <==

    J tasked:                  Yes
    K tasked:                  Yes
    wK tasked:                 Yes
    Omega:               2.000E-01
    OpenMP threads:              8
    Integrals threads:           8
    Memory [MiB]:            11363
    Algorithm:                Core
    Integral Cache:           NONE
    Schwarz Cutoff:          1E-12
    Fitting Condition:       1E-10

   => Auxiliary Basis Set <=

  Basis Set: (AUG-CC-PVDZ AUX)
    Blend: AUG-CC-PVDZ-JKFIT
    Number of shells: 52
    Number of basis function: 150
    Number of Cartesian functions: 171
    Spherical Harmonics?: true
    Max angular momentum: 3

  Cached 100.0% of DFT collocation blocks in 0.079 [GiB].

  Minimum eigenvalue in the overlap matrix is 2.8181850016E-03.
  Using Symmetric Orthogonalization.

  SCF Guess: Superposition of Atomic Densities via on-the-fly atomic UHF.

  ==> Iterations <==

                           Total Energy        Delta E     RMS |[F,P]|

   @DF-RKS iter SAD:   -75.95298849785584   -7.59530e+01   0.00000e+00 
   @DF-RKS iter   1:   -76.27479180692086   -3.21803e-01   1.51025e-02 DIIS
   @DF-RKS iter   2:   -76.22797837976329    4.68134e-02   1.78012e-02 DIIS
   @DF-RKS iter   3:   -76.41937966460938   -1.91401e-01   3.63593e-04 DIIS
   @DF-RKS iter   4:   -76.41952462032833   -1.44956e-04   9.80291e-05 DIIS
   @DF-RKS iter   5:   -76.41953247555632   -7.85523e-06   1.86589e-05 DIIS
   @DF-RKS iter   6:   -76.41953280099291   -3.25437e-07   2.01715e-06 DIIS
   @DF-RKS iter   7:   -76.41953281155820   -1.05653e-08   2.54285e-07 DIIS
  Energy and wave function converged.


  ==> Post-Iterations <==

    Orbital Energies [Eh]
    ---------------------

    Doubly Occupied:                                                      

       1A    -19.278409     2A     -1.119559     3A     -0.631664  
       4A     -0.478766     5A     -0.406737  

    Virtual:                                                              

       6A      0.033995     7A      0.060955     8A      0.162094  
       9A      0.190810    10A      0.199502    11A      0.217722  
      12A      0.255452    13A      0.301860    14A      0.362037  
      15A      0.377884    16A      0.407861    17A      0.518258  
      18A      0.579978    19A      0.603668    20A      0.716599  
      21A      0.810104    22A      0.980650    23A      0.992272  
      24A      1.034555    25A      1.173778    26A      1.288951  
      27A      1.315185    28A      1.397329    29A      1.817879  
      30A      1.849886    31A      1.920704    32A      2.227237  
      33A      2.231538    34A      2.375693    35A      2.497608  
      36A      2.712259    37A      3.372685    38A      3.384640  
      39A      3.402432    40A      3.735963    41A      3.968824  

    Final Occupation by Irrep:
              A 
    DOCC [     5 ]

  @DF-RKS Final Energy:   -76.41953281155820

   => Energetics <=

    Nuclear Repulsion Energy =              9.1639530615554179
    One-Electron Energy =                -122.9427109543672145
    Two-Electron Energy =                  43.8317248464605882
    DFT Exchange-Correlation Energy =      -6.4724690455349414
    Empirical Dispersion Energy =          -0.0000307196720609
    VV10 Nonlocal Energy =                  0.0000000000000000
    Total Energy =                        -76.4195328115581987

Computation Completed


Properties will be evaluated at  -5.798920,  -0.991614,  -4.262046 [a0]

Properties computed using the SCF density matrix

  Nuclear Dipole Moment: [e a0]
     X:    -0.9098      Y:    -0.0945      Z:     0.2219

  Electronic Dipole Moment: [e a0]
     X:     0.2106      Y:     0.0223      Z:    -0.0516

  Dipole Moment: [e a0]
     X:    -0.6992      Y:    -0.0722      Z:     0.1703     Total:     0.7233

  Dipole Moment: [D]
     X:    -1.7773      Y:    -0.1836      Z:     0.4329     Total:     1.8384


*** tstop() called on cpu-spot-dy-c5n2xlarge-1 at Tue Jun 22 14:27:21 2021
Module time:
	user time   =       8.08 seconds =       0.13 minutes
	system time =       0.27 seconds =       0.00 minutes
	total time  =          1 seconds =       0.02 minutes
Total time:
	user time   =       8.08 seconds =       0.13 minutes
	system time =       0.27 seconds =       0.00 minutes
	total time  =          1 seconds =       0.02 minutes

       N-Body: Complex Energy (fragments = (2,), basis = (2,):   -76.41953281155820)

       N-Body: Computing complex (2/4) with fragments (2,) in the basis of fragments (1, 2).


*** tstart() called on cpu-spot-dy-c5n2xlarge-1
*** at Tue Jun 22 14:27:21 2021

   => Loading Basis Set <=

    Name: AUG-CC-PVDZ
    Role: ORBITAL
    Keyword: BASIS
    atoms 1             entry N          line   214 file /fsx/users/francis/anaconda3/envs/poltype-dev/share/psi4/basis/aug-cc-pvdz.gbs 
    atoms 2-3, 6-12, 14 entry C          line   178 file /fsx/users/francis/anaconda3/envs/poltype-dev/share/psi4/basis/aug-cc-pvdz.gbs 
    atoms 4-5           entry F          line   286 file /fsx/users/francis/anaconda3/envs/poltype-dev/share/psi4/basis/aug-cc-pvdz.gbs 
    atoms 13            entry S          line   698 file /fsx/users/francis/anaconda3/envs/poltype-dev/share/psi4/basis/aug-cc-pvdz.gbs 
    atoms 15-16, 24     entry O          line   250 file /fsx/users/francis/anaconda3/envs/poltype-dev/share/psi4/basis/aug-cc-pvdz.gbs 
    atoms 17-23, 25-26  entry H          line    36 file /fsx/users/francis/anaconda3/envs/poltype-dev/share/psi4/basis/aug-cc-pvdz.gbs 


         ---------------------------------------------------------
                                   SCF
               by Justin Turney, Rob Parrish, Andy Simmonett
                          and Daniel G. A. Smith
                              RKS Reference
                        8 Threads,  15258 MiB Core
         ---------------------------------------------------------

  ==> Geometry <==

    Molecular point group: c1
    Full point group: C1

    Geometry (in Angstrom), charge = 0, multiplicity = 1:

       Center              X                  Y                   Z               Mass       
    ------------   -----------------  -----------------  -----------------  -----------------
      Gh(N)          -0.741005218430    -1.444932621402     0.202892309514    14.003074004430
      Gh(C)          -2.022622218430    -1.156615621402     0.594422309514    12.000000000000
      Gh(C)          -2.275345218430     0.328560378598     1.014551309514    12.000000000000
      Gh(F)          -3.559660218430     0.683449378598     0.648176309514    18.998403162730
      Gh(F)          -2.209944218430     0.379920378598     2.388111309514    18.998403162730
      Gh(C)          -1.268358218430     1.383412378598     0.442146309514    12.000000000000
      Gh(C)           0.059794781570     0.873620378598     0.026531309514    12.000000000000
      Gh(C)           1.071974781570     1.769973378598    -0.381964690486    12.000000000000
      Gh(C)           2.339084781570     1.302954378598    -0.754061690486    12.000000000000
      Gh(C)           2.616179781570    -0.088792621402    -0.749117690486    12.000000000000
      Gh(C)           1.587801781570    -0.990360621402    -0.399064690486    12.000000000000
      Gh(C)           0.313022781570    -0.526767621402    -0.031471690486    12.000000000000
      Gh(S)           4.179660781570    -0.790940621402    -1.185913690486    31.972071174400
      Gh(C)           5.160082781570    -0.614901621402     0.325931309514    12.000000000000
      Gh(O)          -2.880893218430    -2.032787621402     0.614057309514    15.994914619570
      Gh(O)          -1.540112218430     2.580957378598     0.443736309514    15.994914619570
      Gh(H)           3.099868781570     2.029253378598    -1.038784690486     1.007825032230
      Gh(H)           0.845610781570     2.836597378598    -0.387594690486     1.007825032230
      Gh(H)          -0.610153218430    -2.422705621402    -0.016521690486     1.007825032230
      Gh(H)           1.788870781570    -2.062500621402    -0.400394690486     1.007825032230
      Gh(H)           5.408909781570     0.440378378598     0.473394309514     1.007825032230
      Gh(H)           4.582252781570    -0.980136621402     1.180577309514     1.007825032230
      Gh(H)           6.078457781570    -1.201123621402     0.225901309514     1.007825032230
         O           -3.007485318430    -0.518384021402    -2.270297890486    15.994914619570
         H           -3.402749318430    -1.255378021402    -1.796935890486     1.007825032230
         H           -3.705393318430     0.105027978598    -2.477021890486     1.007825032230

  Running in c1 symmetry.

  Rotational constants: A =      0.02650  B =      0.00737  C =      0.00691 [cm^-1]
  Rotational constants: A =    794.54021  B =    220.97108  C =    207.27000 [MHz]
  Nuclear repulsion =    9.163953061555418

  Charge       = 0
  Multiplicity = 1
  Electrons    = 10
  Nalpha       = 5
  Nbeta        = 5

  ==> Algorithm <==

  SCF Algorithm Type is DF.
  DIIS enabled.
  MOM disabled.
  Fractional occupation disabled.
  Guess Type is SAD.
  Energy threshold   = 1.00e-06
  Density threshold  = 1.00e-06
  Integral threshold = 0.00e+00

  ==> Primary Basis <==

  Basis Set: AUG-CC-PVDZ
    Blend: AUG-CC-PVDZ
    Number of shells: 200
    Number of basis function: 476
    Number of Cartesian functions: 510
    Spherical Harmonics?: true
    Max angular momentum: 2

  ==> DFT Potential <==

   => Composite Functional: WB97X-D <= 

    wB97X-D Hyb-GGA Exchange-Correlation Functional

    J.-D. Chai and M. Head-Gordon, Phys. Chem. Chem. Phys. 10, 6615 (2008)

    Deriv               =              1
    GGA                 =           TRUE
    Meta                =          FALSE

    Exchange Hybrid     =           TRUE
    MP2 Hybrid          =          FALSE

   => Exchange-Correlation Functionals <=

    1.0000   wB97D range-separated functional

   => Exact (HF) Exchange <=

    0.7780            HF,LR [omega = 0.2000]
    0.2220               HF 

   => Molecular Quadrature <=

    Radial Scheme          =       TREUTLER
    Pruning Scheme         =           FLAT
    Nuclear Scheme         =       TREUTLER

    BS radius alpha        =              1
    Pruning alpha          =              1
    Radial Points          =             75
    Spherical Points       =            302
    Total Points           =         588900
    Total Blocks           =           4352
    Max Points             =            256
    Max Functions          =            429

   => WB97X-D: Empirical Dispersion <=

    Chai and Head-Gordon Dispersion Correction
    Chai, J.-D.; Head-Gordon, M. (2010), J. Chem. Phys., 132: 6615-6620

        s6 =       1.000000

   => Loading Basis Set <=

    Name: (AUG-CC-PVDZ AUX)
    Role: JKFIT
    Keyword: DF_BASIS_SCF
    atoms 1             entry N          line   212 file /fsx/users/francis/anaconda3/envs/poltype-dev/share/psi4/basis/aug-cc-pvdz-jkfit.gbs 
    atoms 2-3, 6-12, 14 entry C          line   154 file /fsx/users/francis/anaconda3/envs/poltype-dev/share/psi4/basis/aug-cc-pvdz-jkfit.gbs 
    atoms 4-5           entry F          line   328 file /fsx/users/francis/anaconda3/envs/poltype-dev/share/psi4/basis/aug-cc-pvdz-jkfit.gbs 
    atoms 13            entry S          line   690 file /fsx/users/francis/anaconda3/envs/poltype-dev/share/psi4/basis/aug-cc-pvdz-jkfit.gbs 
    atoms 15-16, 24     entry O          line   270 file /fsx/users/francis/anaconda3/envs/poltype-dev/share/psi4/basis/aug-cc-pvdz-jkfit.gbs 
    atoms 17-23, 25-26  entry H          line    70 file /fsx/users/francis/anaconda3/envs/poltype-dev/share/psi4/basis/aug-cc-pvdz-jkfit.gbs 

  ==> Pre-Iterations <==

   -------------------------------------------------------
    Irrep   Nso     Nmo     Nalpha   Nbeta   Ndocc  Nsocc
   -------------------------------------------------------
     A        476     476       0       0       0       0
   -------------------------------------------------------
    Total     476     476       5       5       5       0
   -------------------------------------------------------

  ==> Integral Setup <==

  ==> DiskDFJK: Density-Fitted J/K Matrices <==

    J tasked:                  Yes
    K tasked:                  Yes
    wK tasked:                 Yes
    Omega:               2.000E-01
    OpenMP threads:              8
    Integrals threads:           8
    Memory [MiB]:             5925
    Algorithm:                Core
    Integral Cache:           NONE
    Schwarz Cutoff:          1E-12
    Fitting Condition:       1E-10

   => Auxiliary Basis Set <=

  Basis Set: (AUG-CC-PVDZ AUX)
    Blend: AUG-CC-PVDZ-JKFIT
    Number of shells: 596
    Number of basis function: 1792
    Number of Cartesian functions: 2081
    Spherical Harmonics?: true
    Max angular momentum: 3

  Cached 100.0% of DFT collocation blocks in 5.389 [GiB].

  Minimum eigenvalue in the overlap matrix is 1.4553025425E-06.
  Using Symmetric Orthogonalization.

  SCF Guess: Superposition of Atomic Densities via on-the-fly atomic UHF.

  ==> Iterations <==

                           Total Energy        Delta E     RMS |[F,P]|

   @DF-RKS iter SAD:   -75.95299758757980   -7.59530e+01   0.00000e+00 
   @DF-RKS iter   1:   -74.45467193832367    1.49833e+00   1.27112e-03 DIIS
   @DF-RKS iter   2:   -75.73486932415096   -1.28020e+00   2.81582e-03 DIIS
   @DF-RKS iter   3:   -76.21116190740804   -4.76293e-01   1.49830e-03 DIIS
   @DF-RKS iter   4:   -76.39567768418908   -1.84516e-01   4.80374e-04 DIIS
   @DF-RKS iter   5:   -76.41969989513319   -2.40222e-02   3.00233e-05 DIIS
   @DF-RKS iter   6:   -76.41983645530291   -1.36560e-04   9.86076e-06 DIIS
   @DF-RKS iter   7:   -76.41985241469889   -1.59594e-05   7.46881e-07 DIIS
   @DF-RKS iter   8:   -76.41985258934206   -1.74643e-07   1.06593e-07 DIIS
  Energy and wave function converged.


  ==> Post-Iterations <==

    Orbital Energies [Eh]
    ---------------------

    Doubly Occupied:                                                      

       1A    -19.278394     2A     -1.119447     3A     -0.631536  
       4A     -0.478628     5A     -0.406569  

    Virtual:                                                              

       6A      0.021417     7A      0.030051     8A      0.037558  
       9A      0.045849    10A      0.050768    11A      0.054597  
      12A      0.059717    13A      0.067409    14A      0.075643  
      15A      0.077016    16A      0.082016    17A      0.088635  
      18A      0.092545    19A      0.097159    20A      0.102187  
      21A      0.106467    22A      0.109018    23A      0.115663  
      24A      0.122164    25A      0.124667    26A      0.132586  
      27A      0.138155    28A      0.139516    29A      0.142670  
      30A      0.148186    31A      0.156013    32A      0.159474  
      33A      0.161158    34A      0.165442    35A      0.167909  
      36A      0.173859    37A      0.177134    38A      0.179277  
      39A      0.182807    40A      0.189695    41A      0.195744  
      42A      0.197528    43A      0.201202    44A      0.206716  
      45A      0.212069    46A      0.214261    47A      0.219023  
      48A      0.221506    49A      0.226787    50A      0.232257  
      51A      0.235309    52A      0.238512    53A      0.241445  
      54A      0.247188    55A      0.250990    56A      0.263237  
      57A      0.265532    58A      0.268109    59A      0.273908  
      60A      0.281105    61A      0.285891    62A      0.288429  
      63A      0.291740    64A      0.295030    65A      0.303384  
      66A      0.307785    67A      0.318150    68A      0.320420  
      69A      0.326020    70A      0.335627    71A      0.339954  
      72A      0.343746    73A      0.344881    74A      0.353808  
      75A      0.358168    76A      0.366493    77A      0.367855  
      78A      0.373528    79A      0.379123    80A      0.382927  
      81A      0.387910    82A      0.396476    83A      0.398527  
      84A      0.405246    85A      0.408204    86A      0.412275  
      87A      0.418202    88A      0.423392    89A      0.431985  
      90A      0.434894    91A      0.440049    92A      0.447685  
      93A      0.453044    94A      0.458092    95A      0.462747  
      96A      0.465403    97A      0.471350    98A      0.475656  
      99A      0.480412   100A      0.481425   101A      0.490334  
     102A      0.492256   103A      0.509175   104A      0.512292  
     105A      0.520094   106A      0.524579   107A      0.526138  
     108A      0.531110   109A      0.535204   110A      0.543693  
     111A      0.549224   112A      0.553376   113A      0.555722  
     114A      0.561932   115A      0.565296   116A      0.576774  
     117A      0.578574   118A      0.583436   119A      0.585665  
     120A      0.601284   121A      0.606461   122A      0.615391  
     123A      0.620531   124A      0.621565   125A      0.629447  
     126A      0.630883   127A      0.639896   128A      0.645731  
     129A      0.650115   130A      0.660710   131A      0.661980  
     132A      0.666387   133A      0.679061   134A      0.680796  
     135A      0.685779   136A      0.693831   137A      0.699012  
     138A      0.710357   139A      0.718894   140A      0.721450  
     141A      0.724888   142A      0.738130   143A      0.744619  
     144A      0.751380   145A      0.755840   146A      0.758958  
     147A      0.763728   148A      0.769410   149A      0.778835  
     150A      0.789985   151A      0.799223   152A      0.802640  
     153A      0.806386   154A      0.818262   155A      0.819671  
     156A      0.826778   157A      0.837177   158A      0.839112  
     159A      0.850084   160A      0.850241   161A      0.859468  
     162A      0.861497   163A      0.867219   164A      0.869284  
     165A      0.879809   166A      0.885528   167A      0.895834  
     168A      0.897659   169A      0.900319   170A      0.911428  
     171A      0.920390   172A      0.925264   173A      0.940261  
     174A      0.951101   175A      0.953844   176A      0.962480  
     177A      0.967747   178A      0.976173   179A      0.979834  
     180A      0.982564   181A      0.987287   182A      0.996037  
     183A      1.003770   184A      1.010609   185A      1.020664  
     186A      1.025258   187A      1.034713   188A      1.047374  
     189A      1.049807   190A      1.063716   191A      1.072053  
     192A      1.079150   193A      1.083237   194A      1.094783  
     195A      1.101356   196A      1.110577   197A      1.114098  
     198A      1.137697   199A      1.143942   200A      1.157861  
     201A      1.159389   202A      1.167293   203A      1.179806  
     204A      1.189969   205A      1.204001   206A      1.206978  
     207A      1.222329   208A      1.226492   209A      1.231925  
     210A      1.247111   211A      1.252679   212A      1.260316  
     213A      1.276039   214A      1.277235   215A      1.297442  
     216A      1.309953   217A      1.323400   218A      1.330061  
     219A      1.343719   220A      1.349729   221A      1.355252  
     222A      1.363243   223A      1.371362   224A      1.391181  
     225A      1.414570   226A      1.417281   227A      1.426184  
     228A      1.432277   229A      1.449079   230A      1.451068  
     231A      1.473837   232A      1.485737   233A      1.488472  
     234A      1.506164   235A      1.512945   236A      1.537321  
     237A      1.538039   238A      1.548616   239A      1.571693  
     240A      1.576469   241A      1.581170   242A      1.594578  
     243A      1.613639   244A      1.629551   245A      1.636781  
     246A      1.651114   247A      1.665518   248A      1.671288  
     249A      1.703911   250A      1.706010   251A      1.718283  
     252A      1.734204   253A      1.752680   254A      1.774689  
     255A      1.790338   256A      1.802668   257A      1.811109  
     258A      1.835565   259A      1.851657   260A      1.879072  
     261A      1.889647   262A      1.896808   263A      1.909888  
     264A      1.927484   265A      1.937916   266A      1.963058  
     267A      1.978127   268A      1.997101   269A      2.022218  
     270A      2.043866   271A      2.063976   272A      2.072026  
     273A      2.082080   274A      2.084307   275A      2.099479  
     276A      2.123707   277A      2.125349   278A      2.147373  
     279A      2.163607   280A      2.181027   281A      2.182078  
     282A      2.189550   283A      2.204084   284A      2.217986  
     285A      2.231399   286A      2.235993   287A      2.238238  
     288A      2.252599   289A      2.258444   290A      2.268597  
     291A      2.281371   292A      2.285771   293A      2.291627  
     294A      2.299606   295A      2.309894   296A      2.317591  
     297A      2.318433   298A      2.333397   299A      2.339033  
     300A      2.348942   301A      2.352667   302A      2.365302  
     303A      2.375655   304A      2.380101   305A      2.387825  
     306A      2.414127   307A      2.425986   308A      2.428319  
     309A      2.434773   310A      2.454967   311A      2.457301  
     312A      2.468148   313A      2.506629   314A      2.512955  
     315A      2.524627   316A      2.561928   317A      2.576926  
     318A      2.581666   319A      2.597759   320A      2.610486  
     321A      2.616096   322A      2.616833   323A      2.635619  
     324A      2.653988   325A      2.657940   326A      2.681679  
     327A      2.689044   328A      2.718899   329A      2.744188  
     330A      2.757008   331A      2.758139   332A      2.793931  
     333A      2.803039   334A      2.821470   335A      2.828149  
     336A      2.846384   337A      2.852999   338A      2.858205  
     339A      2.878384   340A      2.888096   341A      2.898749  
     342A      2.914850   343A      2.934280   344A      2.960017  
     345A      2.981921   346A      2.997931   347A      3.019330  
     348A      3.030793   349A      3.039327   350A      3.066542  
     351A      3.082866   352A      3.096989   353A      3.133211  
     354A      3.142346   355A      3.166485   356A      3.194061  
     357A      3.255045   358A      3.266647   359A      3.275499  
     360A      3.286413   361A      3.289222   362A      3.310783  
     363A      3.332916   364A      3.361375   365A      3.376874  
     366A      3.438223   367A      3.441235   368A      3.452503  
     369A      3.470271   370A      3.488327   371A      3.503036  
     372A      3.508879   373A      3.546564   374A      3.558310  
     375A      3.587825   376A      3.622513   377A      3.672446  
     378A      3.677918   379A      3.708821   380A      3.731886  
     381A      3.772886   382A      3.806808   383A      3.827893  
     384A      3.872745   385A      3.906088   386A      3.957292  
     387A      3.991275   388A      4.011442   389A      4.040776  
     390A      4.052366   391A      4.097122   392A      4.146735  
     393A      4.200098   394A      4.240606   395A      4.322406  
     396A      4.355259   397A      4.382544   398A      4.386557  
     399A      4.478051   400A      4.525115   401A      4.536466  
     402A      4.598208   403A      4.647233   404A      4.684857  
     405A      4.731155   406A      4.780378   407A      4.857392  
     408A      4.903176   409A      4.942365   410A      4.985507  
     411A      5.027018   412A      5.058057   413A      5.059909  
     414A      5.071631   415A      5.072972   416A      5.090597  
     417A      5.098698   418A      5.111023   419A      5.128953  
     420A      5.209550   421A      5.272540   422A      5.276850  
     423A      5.319551   424A      5.378115   425A      5.406222  
     426A      5.446524   427A      5.471357   428A      5.531234  
     429A      5.628384   430A      5.825516   431A      5.986116  
     432A      6.040601   433A      6.049006   434A      6.146421  
     435A      6.169704   436A      6.247928   437A      6.452481  
     438A      6.507669   439A      6.816507   440A      6.837047  
     441A      6.866844   442A      6.874079   443A      6.889504  
     444A      6.918312   445A      6.937637   446A      6.957444  
     447A      6.970439   448A      6.985336   449A      7.043759  
     450A      7.051867   451A      7.113555   452A      7.819152  
     453A      7.940402   454A      7.995354   455A      8.130226  
     456A      8.157089   457A      8.242489   458A     18.007989  
     459A     18.423732   460A     18.564889   461A     18.618247  
     462A     18.795770   463A     18.896545   464A     19.170913  
     465A     19.377471   466A     19.658602   467A     20.605689  
     468A     20.750582   469A     20.893744   470A     21.432840  
     471A     25.493640   472A     33.543715   473A     33.554540  
     474A     43.017220   475A     43.024812   476A    138.005136  

    Final Occupation by Irrep:
              A 
    DOCC [     5 ]

  @DF-RKS Final Energy:   -76.41985258934206

   => Energetics <=

    Nuclear Repulsion Energy =              9.1639530615554179
    One-Electron Energy =                -122.9444075090389390
    Two-Electron Energy =                  43.8333124044750733
    DFT Exchange-Correlation Energy =      -6.4726798266615440
    Empirical Dispersion Energy =          -0.0000307196720609
    VV10 Nonlocal Energy =                  0.0000000000000000
    Total Energy =                        -76.4198525893420566

Computation Completed


Properties will be evaluated at   0.000000,  -0.000000,   0.000000 [a0]

Properties computed using the SCF density matrix

  Nuclear Dipole Moment: [e a0]
     X:   -58.8990      Y:   -10.0107      Z:   -42.3985

  Electronic Dipole Moment: [e a0]
     X:    58.2019      Y:     9.9385      Z:    42.5689

  Dipole Moment: [e a0]
     X:    -0.6971      Y:    -0.0722      Z:     0.1704     Total:     0.7213

  Dipole Moment: [D]
     X:    -1.7719      Y:    -0.1835      Z:     0.4330     Total:     1.8332


*** tstop() called on cpu-spot-dy-c5n2xlarge-1 at Tue Jun 22 14:28:58 2021
Module time:
	user time   =     672.06 seconds =      11.20 minutes
	system time =       7.19 seconds =       0.12 minutes
	total time  =         97 seconds =       1.62 minutes
Total time:
	user time   =     680.21 seconds =      11.34 minutes
	system time =       7.46 seconds =       0.12 minutes
	total time  =         98 seconds =       1.63 minutes

       N-Body: Complex Energy (fragments = (2,), basis = (1, 2):   -76.41985258934206)

       N-Body: Computing complex (3/4) with fragments (1,) in the basis of fragments (1, 2).


*** tstart() called on cpu-spot-dy-c5n2xlarge-1
*** at Tue Jun 22 14:28:58 2021

   => Loading Basis Set <=

    Name: AUG-CC-PVDZ
    Role: ORBITAL
    Keyword: BASIS
    atoms 1             entry N          line   214 file /fsx/users/francis/anaconda3/envs/poltype-dev/share/psi4/basis/aug-cc-pvdz.gbs 
    atoms 2-3, 6-12, 14 entry C          line   178 file /fsx/users/francis/anaconda3/envs/poltype-dev/share/psi4/basis/aug-cc-pvdz.gbs 
    atoms 4-5           entry F          line   286 file /fsx/users/francis/anaconda3/envs/poltype-dev/share/psi4/basis/aug-cc-pvdz.gbs 
    atoms 13            entry S          line   698 file /fsx/users/francis/anaconda3/envs/poltype-dev/share/psi4/basis/aug-cc-pvdz.gbs 
    atoms 15-16, 24     entry O          line   250 file /fsx/users/francis/anaconda3/envs/poltype-dev/share/psi4/basis/aug-cc-pvdz.gbs 
    atoms 17-23, 25-26  entry H          line    36 file /fsx/users/francis/anaconda3/envs/poltype-dev/share/psi4/basis/aug-cc-pvdz.gbs 


         ---------------------------------------------------------
                                   SCF
               by Justin Turney, Rob Parrish, Andy Simmonett
                          and Daniel G. A. Smith
                              RKS Reference
                        8 Threads,  15258 MiB Core
         ---------------------------------------------------------

  ==> Geometry <==

    Molecular point group: c1
    Full point group: C1

    Geometry (in Angstrom), charge = 0, multiplicity = 1:

       Center              X                  Y                   Z               Mass       
    ------------   -----------------  -----------------  -----------------  -----------------
         N           -0.741005218430    -1.444932621402     0.202892309514    14.003074004430
         C           -2.022622218430    -1.156615621402     0.594422309514    12.000000000000
         C           -2.275345218430     0.328560378598     1.014551309514    12.000000000000
         F           -3.559660218430     0.683449378598     0.648176309514    18.998403162730
         F           -2.209944218430     0.379920378598     2.388111309514    18.998403162730
         C           -1.268358218430     1.383412378598     0.442146309514    12.000000000000
         C            0.059794781570     0.873620378598     0.026531309514    12.000000000000
         C            1.071974781570     1.769973378598    -0.381964690486    12.000000000000
         C            2.339084781570     1.302954378598    -0.754061690486    12.000000000000
         C            2.616179781570    -0.088792621402    -0.749117690486    12.000000000000
         C            1.587801781570    -0.990360621402    -0.399064690486    12.000000000000
         C            0.313022781570    -0.526767621402    -0.031471690486    12.000000000000
         S            4.179660781570    -0.790940621402    -1.185913690486    31.972071174400
         C            5.160082781570    -0.614901621402     0.325931309514    12.000000000000
         O           -2.880893218430    -2.032787621402     0.614057309514    15.994914619570
         O           -1.540112218430     2.580957378598     0.443736309514    15.994914619570
         H            3.099868781570     2.029253378598    -1.038784690486     1.007825032230
         H            0.845610781570     2.836597378598    -0.387594690486     1.007825032230
         H           -0.610153218430    -2.422705621402    -0.016521690486     1.007825032230
         H            1.788870781570    -2.062500621402    -0.400394690486     1.007825032230
         H            5.408909781570     0.440378378598     0.473394309514     1.007825032230
         H            4.582252781570    -0.980136621402     1.180577309514     1.007825032230
         H            6.078457781570    -1.201123621402     0.225901309514     1.007825032230
      Gh(O)          -3.007485318430    -0.518384021402    -2.270297890486    15.994914619570
      Gh(H)          -3.402749318430    -1.255378021402    -1.796935890486     1.007825032230
      Gh(H)          -3.705393318430     0.105027978598    -2.477021890486     1.007825032230

  Running in c1 symmetry.

  Rotational constants: A =      0.02650  B =      0.00737  C =      0.00691 [cm^-1]
  Rotational constants: A =    794.54021  B =    220.97108  C =    207.27000 [MHz]
  Nuclear repulsion = 1178.808827492630826

  Charge       = 0
  Multiplicity = 1
  Electrons    = 124
  Nalpha       = 62
  Nbeta        = 62

  ==> Algorithm <==

  SCF Algorithm Type is DF.
  DIIS enabled.
  MOM disabled.
  Fractional occupation disabled.
  Guess Type is SAD.
  Energy threshold   = 1.00e-06
  Density threshold  = 1.00e-06
  Integral threshold = 0.00e+00

  ==> Primary Basis <==

  Basis Set: AUG-CC-PVDZ
    Blend: AUG-CC-PVDZ
    Number of shells: 200
    Number of basis function: 476
    Number of Cartesian functions: 510
    Spherical Harmonics?: true
    Max angular momentum: 2

  ==> DFT Potential <==

   => Composite Functional: WB97X-D <= 

    wB97X-D Hyb-GGA Exchange-Correlation Functional

    J.-D. Chai and M. Head-Gordon, Phys. Chem. Chem. Phys. 10, 6615 (2008)

    Deriv               =              1
    GGA                 =           TRUE
    Meta                =          FALSE

    Exchange Hybrid     =           TRUE
    MP2 Hybrid          =          FALSE

   => Exchange-Correlation Functionals <=

    1.0000   wB97D range-separated functional

   => Exact (HF) Exchange <=

    0.7780            HF,LR [omega = 0.2000]
    0.2220               HF 

   => Molecular Quadrature <=

    Radial Scheme          =       TREUTLER
    Pruning Scheme         =           FLAT
    Nuclear Scheme         =       TREUTLER

    BS radius alpha        =              1
    Pruning alpha          =              1
    Radial Points          =             75
    Spherical Points       =            302
    Total Points           =         588900
    Total Blocks           =           4352
    Max Points             =            256
    Max Functions          =            429

   => WB97X-D: Empirical Dispersion <=

    Chai and Head-Gordon Dispersion Correction
    Chai, J.-D.; Head-Gordon, M. (2010), J. Chem. Phys., 132: 6615-6620

        s6 =       1.000000

   => Loading Basis Set <=

    Name: (AUG-CC-PVDZ AUX)
    Role: JKFIT
    Keyword: DF_BASIS_SCF
    atoms 1             entry N          line   212 file /fsx/users/francis/anaconda3/envs/poltype-dev/share/psi4/basis/aug-cc-pvdz-jkfit.gbs 
    atoms 2-3, 6-12, 14 entry C          line   154 file /fsx/users/francis/anaconda3/envs/poltype-dev/share/psi4/basis/aug-cc-pvdz-jkfit.gbs 
    atoms 4-5           entry F          line   328 file /fsx/users/francis/anaconda3/envs/poltype-dev/share/psi4/basis/aug-cc-pvdz-jkfit.gbs 
    atoms 13            entry S          line   690 file /fsx/users/francis/anaconda3/envs/poltype-dev/share/psi4/basis/aug-cc-pvdz-jkfit.gbs 
    atoms 15-16, 24     entry O          line   270 file /fsx/users/francis/anaconda3/envs/poltype-dev/share/psi4/basis/aug-cc-pvdz-jkfit.gbs 
    atoms 17-23, 25-26  entry H          line    70 file /fsx/users/francis/anaconda3/envs/poltype-dev/share/psi4/basis/aug-cc-pvdz-jkfit.gbs 

  ==> Pre-Iterations <==

   -------------------------------------------------------
    Irrep   Nso     Nmo     Nalpha   Nbeta   Ndocc  Nsocc
   -------------------------------------------------------
     A        476     476       0       0       0       0
   -------------------------------------------------------
    Total     476     476      62      62      62       0
   -------------------------------------------------------

  ==> Integral Setup <==

  ==> DiskDFJK: Density-Fitted J/K Matrices <==

    J tasked:                  Yes
    K tasked:                  Yes
    wK tasked:                 Yes
    Omega:               2.000E-01
    OpenMP threads:              8
    Integrals threads:           8
    Memory [MiB]:             5925
    Algorithm:                Core
    Integral Cache:           NONE
    Schwarz Cutoff:          1E-12
    Fitting Condition:       1E-10

   => Auxiliary Basis Set <=

  Basis Set: (AUG-CC-PVDZ AUX)
    Blend: AUG-CC-PVDZ-JKFIT
    Number of shells: 596
    Number of basis function: 1792
    Number of Cartesian functions: 2081
    Spherical Harmonics?: true
    Max angular momentum: 3

  Cached 100.0% of DFT collocation blocks in 5.389 [GiB].

  Minimum eigenvalue in the overlap matrix is 1.4553025425E-06.
  Using Symmetric Orthogonalization.

  SCF Guess: Superposition of Atomic Densities via on-the-fly atomic UHF.

  ==> Iterations <==

                           Total Energy        Delta E     RMS |[F,P]|

   @DF-RKS iter SAD: -1187.39352241966981   -1.18739e+03   0.00000e+00 
   @DF-RKS iter   1: -1187.69075635893796   -2.97234e-01   2.21177e-03 DIIS
   @DF-RKS iter   2: -1187.69869759603466   -7.94124e-03   2.40459e-03 DIIS
   @DF-RKS iter   3: -1188.17438903684297   -4.75691e-01   5.68193e-04 DIIS
   @DF-RKS iter   4: -1188.20281256096655   -2.84235e-02   1.48238e-04 DIIS
   @DF-RKS iter   5: -1188.20501264070185   -2.20008e-03   4.24279e-05 DIIS
   @DF-RKS iter   6: -1188.20523629711238   -2.23656e-04   1.43984e-05 DIIS
   @DF-RKS iter   7: -1188.20526261421514   -2.63171e-05   4.45377e-06 DIIS
   @DF-RKS iter   8: -1188.20526762272493   -5.00851e-06   1.60081e-06 DIIS
   @DF-RKS iter   9: -1188.20526885697177   -1.23425e-06   9.80226e-07 DIIS
   @DF-RKS iter  10: -1188.20526908402690   -2.27055e-07   3.74196e-07 DIIS
  Energy and wave function converged.


  ==> Post-Iterations <==

    Orbital Energies [Eh]
    ---------------------

    Doubly Occupied:                                                      

       1A    -89.069886     2A    -24.879960     3A    -24.867938  
       4A    -19.304423     5A    -19.288165     6A    -14.536540  
       7A    -10.509237     8A    -10.455440     9A    -10.436291  
      10A    -10.407734    11A    -10.379049    12A    -10.356625  
      13A    -10.352282    14A    -10.350048    15A    -10.345605  
      16A    -10.343913    17A     -8.087390    18A     -6.037269  
      19A     -6.033127    20A     -6.026163    21A     -1.385545  
      22A     -1.327099    23A     -1.188884    24A     -1.180954  
      25A     -1.093619    26A     -1.000418    27A     -0.938457  
      28A     -0.904061    29A     -0.888562    30A     -0.866794  
      31A     -0.792565    32A     -0.765713    33A     -0.752309  
      34A     -0.740047    35A     -0.695917    36A     -0.678034  
      37A     -0.668630    38A     -0.643470    39A     -0.628951  
      40A     -0.591254    41A     -0.579791    42A     -0.568653  
      43A     -0.562489    44A     -0.557435    45A     -0.555490  
      46A     -0.548658    47A     -0.539252    48A     -0.533778  
      49A     -0.527409    50A     -0.516697    51A     -0.512085  
      52A     -0.500522    53A     -0.494245    54A     -0.480461  
      55A     -0.474045    56A     -0.440846    57A     -0.420371  
      58A     -0.397724    59A     -0.371871    60A     -0.368287  
      61A     -0.340263    62A     -0.332454  

    Virtual:                                                              

      63A     -0.057360    64A      0.006617    65A      0.023990  
      66A      0.032000    67A      0.036176    68A      0.040150  
      69A      0.048803    70A      0.050574    71A      0.057449  
      72A      0.060449    73A      0.066364    74A      0.075099  
      75A      0.077353    76A      0.083635    77A      0.087671  
      78A      0.092399    79A      0.100993    80A      0.104559  
      81A      0.107634    82A      0.107951    83A      0.114778  
      84A      0.117232    85A      0.124106    86A      0.126311  
      87A      0.131984    88A      0.135263    89A      0.137073  
      90A      0.140030    91A      0.148001    92A      0.152611  
      93A      0.153757    94A      0.156503    95A      0.164244  
      96A      0.167047    97A      0.167988    98A      0.169739  
      99A      0.173810   100A      0.177918   101A      0.178591  
     102A      0.183893   103A      0.187643   104A      0.193084  
     105A      0.199225   106A      0.201114   107A      0.203204  
     108A      0.210398   109A      0.211723   110A      0.216281  
     111A      0.220753   112A      0.224722   113A      0.229046  
     114A      0.232129   115A      0.232834   116A      0.239395  
     117A      0.244086   118A      0.247171   119A      0.253100  
     120A      0.256323   121A      0.260366   122A      0.263634  
     123A      0.270474   124A      0.271318   125A      0.274283  
     126A      0.276650   127A      0.278636   128A      0.283659  
     129A      0.287360   130A      0.289898   131A      0.296761  
     132A      0.298897   133A      0.306580   134A      0.308220  
     135A      0.309777   136A      0.319761   137A      0.321974  
     138A      0.326167   139A      0.329769   140A      0.335521  
     141A      0.343809   142A      0.345404   143A      0.348422  
     144A      0.350963   145A      0.362506   146A      0.365621  
     147A      0.368335   148A      0.369455   149A      0.373531  
     150A      0.375118   151A      0.377232   152A      0.383000  
     153A      0.384541   154A      0.391623   155A      0.393028  
     156A      0.403585   157A      0.406772   158A      0.409468  
     159A      0.414352   160A      0.418095   161A      0.424868  
     162A      0.428765   163A      0.434576   164A      0.440125  
     165A      0.442142   166A      0.445854   167A      0.457598  
     168A      0.461922   169A      0.467666   170A      0.471047  
     171A      0.477432   172A      0.478730   173A      0.487838  
     174A      0.490777   175A      0.495323   176A      0.501882  
     177A      0.502707   178A      0.507505   179A      0.515088  
     180A      0.520258   181A      0.523472   182A      0.529783  
     183A      0.534300   184A      0.539422   185A      0.542881  
     186A      0.542957   187A      0.552120   188A      0.555110  
     189A      0.565955   190A      0.566343   191A      0.571649  
     192A      0.580737   193A      0.582508   194A      0.592077  
     195A      0.595215   196A      0.599455   197A      0.601876  
     198A      0.612152   199A      0.617128   200A      0.622387  
     201A      0.628789   202A      0.631175   203A      0.636117  
     204A      0.638581   205A      0.642568   206A      0.648227  
     207A      0.649536   208A      0.658041   209A      0.662042  
     210A      0.666358   211A      0.668718   212A      0.675571  
     213A      0.682148   214A      0.685280   215A      0.687813  
     216A      0.696937   217A      0.700189   218A      0.702961  
     219A      0.707592   220A      0.711976   221A      0.722775  
     222A      0.724723   223A      0.742081   224A      0.744540  
     225A      0.750968   226A      0.760609   227A      0.766046  
     228A      0.775786   229A      0.778222   230A      0.784526  
     231A      0.792175   232A      0.794961   233A      0.802701  
     234A      0.809614   235A      0.814418   236A      0.817815  
     237A      0.828194   238A      0.832809   239A      0.837356  
     240A      0.846512   241A      0.852039   242A      0.855131  
     243A      0.864673   244A      0.867091   245A      0.879509  
     246A      0.884979   247A      0.899568   248A      0.905574  
     249A      0.912534   250A      0.922974   251A      0.924984  
     252A      0.938410   253A      0.945286   254A      0.954044  
     255A      0.962118   256A      0.972650   257A      0.982862  
     258A      0.990139   259A      0.997014   260A      1.008525  
     261A      1.018407   262A      1.025274   263A      1.039846  
     264A      1.043095   265A      1.048741   266A      1.057629  
     267A      1.066122   268A      1.069713   269A      1.081764  
     270A      1.098555   271A      1.103659   272A      1.115134  
     273A      1.120375   274A      1.137980   275A      1.141496  
     276A      1.145578   277A      1.151957   278A      1.157689  
     279A      1.174130   280A      1.181283   281A      1.191499  
     282A      1.193506   283A      1.207026   284A      1.217231  
     285A      1.228456   286A      1.234525   287A      1.246142  
     288A      1.263374   289A      1.271813   290A      1.283465  
     291A      1.295365   292A      1.298897   293A      1.309887  
     294A      1.314990   295A      1.324926   296A      1.332364  
     297A      1.336326   298A      1.350033   299A      1.353328  
     300A      1.355781   301A      1.363098   302A      1.368345  
     303A      1.385958   304A      1.397194   305A      1.402272  
     306A      1.406324   307A      1.411229   308A      1.419988  
     309A      1.431723   310A      1.436319   311A      1.450089  
     312A      1.470520   313A      1.472752   314A      1.475506  
     315A      1.486749   316A      1.502988   317A      1.507387  
     318A      1.516036   319A      1.526983   320A      1.543333  
     321A      1.552289   322A      1.554425   323A      1.557462  
     324A      1.564979   325A      1.570551   326A      1.579444  
     327A      1.589179   328A      1.605009   329A      1.607275  
     330A      1.610956   331A      1.613167   332A      1.630313  
     333A      1.639527   334A      1.640748   335A      1.656805  
     336A      1.666144   337A      1.669074   338A      1.680390  
     339A      1.685550   340A      1.700429   341A      1.704095  
     342A      1.710462   343A      1.722316   344A      1.741510  
     345A      1.750662   346A      1.759598   347A      1.767031  
     348A      1.771807   349A      1.788661   350A      1.794406  
     351A      1.816945   352A      1.827550   353A      1.831927  
     354A      1.839503   355A      1.856284   356A      1.861972  
     357A      1.870488   358A      1.878416   359A      1.882795  
     360A      1.895765   361A      1.911436   362A      1.914113  
     363A      1.924138   364A      1.936037   365A      1.947520  
     366A      1.952980   367A      1.971252   368A      1.974302  
     369A      1.986101   370A      1.993456   371A      1.999036  
     372A      2.012790   373A      2.020492   374A      2.032663  
     375A      2.047453   376A      2.056978   377A      2.065590  
     378A      2.075654   379A      2.087350   380A      2.089784  
     381A      2.100485   382A      2.118789   383A      2.130502  
     384A      2.153536   385A      2.156651   386A      2.172966  
     387A      2.176918   388A      2.198410   389A      2.202987  
     390A      2.207740   391A      2.227413   392A      2.237301  
     393A      2.248655   394A      2.289486   395A      2.293399  
     396A      2.315295   397A      2.325185   398A      2.334686  
     399A      2.343064   400A      2.348973   401A      2.354232  
     402A      2.360188   403A      2.370254   404A      2.409269  
     405A      2.418239   406A      2.428447   407A      2.446448  
     408A      2.483705   409A      2.492137   410A      2.512943  
     411A      2.550602   412A      2.557198   413A      2.581314  
     414A      2.598518   415A      2.614718   416A      2.623255  
     417A      2.638880   418A      2.651874   419A      2.670286  
     420A      2.690924   421A      2.699811   422A      2.710016  
     423A      2.716624   424A      2.729587   425A      2.754705  
     426A      2.790185   427A      2.830152   428A      2.859010  
     429A      2.954026   430A      2.994063   431A      3.018848  
     432A      3.035820   433A      3.118573   434A      3.177136  
     435A      3.185888   436A      3.385597   437A      3.392867  
     438A      3.408327   439A      3.444993   440A      3.479839  
     441A      3.488979   442A      3.501383   443A      3.511961  
     444A      3.532946   445A      3.566636   446A      3.584368  
     447A      3.595872   448A      3.618472   449A      3.697841  
     450A      3.721730   451A      3.763215   452A      3.819676  
     453A      3.891950   454A      3.993835   455A      4.075129  
     456A      4.125798   457A      4.455025   458A      4.633061  
     459A      4.668934   460A      4.701835   461A      4.726971  
     462A      4.748775   463A      4.757218   464A      4.785077  
     465A      4.824038   466A      4.873382   467A      4.907578  
     468A      4.992514   469A      5.032607   470A      5.066690  
     471A      5.238222   472A      5.480781   473A      5.819080  
     474A      6.616622   475A      7.092851   476A     33.579769  

    Final Occupation by Irrep:
              A 
    DOCC [    62 ]

  @DF-RKS Final Energy: -1188.20526908402690

   => Energetics <=

    Nuclear Repulsion Energy =           1178.8088274926308259
    One-Electron Energy =               -3972.0479276622950238
    Two-Electron Energy =                1694.5857743195713283
    DFT Exchange-Correlation Energy =     -89.5384793078919756
    Empirical Dispersion Energy =          -0.0134639260419725
    VV10 Nonlocal Energy =                  0.0000000000000000
    Total Energy =                      -1188.2052690840268951

Computation Completed


Properties will be evaluated at   0.000000,  -0.000000,   0.000000 [a0]

Properties computed using the SCF density matrix

  Nuclear Dipole Moment: [e a0]
     X:    77.6235      Y:     6.6374      Z:    35.5241

  Electronic Dipole Moment: [e a0]
     X:   -75.0682      Y:    -7.1042      Z:   -35.7269

  Dipole Moment: [e a0]
     X:     2.5553      Y:    -0.4668      Z:    -0.2027     Total:     2.6055

  Dipole Moment: [D]
     X:     6.4948      Y:    -1.1865      Z:    -0.5153     Total:     6.6224


*** tstop() called on cpu-spot-dy-c5n2xlarge-1 at Tue Jun 22 14:31:00 2021
Module time:
	user time   =     899.04 seconds =      14.98 minutes
	system time =       8.82 seconds =       0.15 minutes
	total time  =        122 seconds =       2.03 minutes
Total time:
	user time   =    1579.28 seconds =      26.32 minutes
	system time =      16.28 seconds =       0.27 minutes
	total time  =        220 seconds =       3.67 minutes

       N-Body: Complex Energy (fragments = (1,), basis = (1, 2): -1188.20526908402690)

       N-Body: Computing complex (4/4) with fragments (1,) in the basis of fragments (1,).


*** tstart() called on cpu-spot-dy-c5n2xlarge-1
*** at Tue Jun 22 14:31:00 2021

   => Loading Basis Set <=

    Name: AUG-CC-PVDZ
    Role: ORBITAL
    Keyword: BASIS
    atoms 1             entry N          line   214 file /fsx/users/francis/anaconda3/envs/poltype-dev/share/psi4/basis/aug-cc-pvdz.gbs 
    atoms 2-3, 6-12, 14 entry C          line   178 file /fsx/users/francis/anaconda3/envs/poltype-dev/share/psi4/basis/aug-cc-pvdz.gbs 
    atoms 4-5           entry F          line   286 file /fsx/users/francis/anaconda3/envs/poltype-dev/share/psi4/basis/aug-cc-pvdz.gbs 
    atoms 13            entry S          line   698 file /fsx/users/francis/anaconda3/envs/poltype-dev/share/psi4/basis/aug-cc-pvdz.gbs 
    atoms 15-16         entry O          line   250 file /fsx/users/francis/anaconda3/envs/poltype-dev/share/psi4/basis/aug-cc-pvdz.gbs 
    atoms 17-23         entry H          line    36 file /fsx/users/francis/anaconda3/envs/poltype-dev/share/psi4/basis/aug-cc-pvdz.gbs 


         ---------------------------------------------------------
                                   SCF
               by Justin Turney, Rob Parrish, Andy Simmonett
                          and Daniel G. A. Smith
                              RKS Reference
                        8 Threads,  15258 MiB Core
         ---------------------------------------------------------

  ==> Geometry <==

    Molecular point group: c1
    Full point group: C1

    Geometry (in Angstrom), charge = 0, multiplicity = 1:

       Center              X                  Y                   Z               Mass       
    ------------   -----------------  -----------------  -----------------  -----------------
         N           -0.741005218430    -1.444932621402     0.202892309514    14.003074004430
         C           -2.022622218430    -1.156615621402     0.594422309514    12.000000000000
         C           -2.275345218430     0.328560378598     1.014551309514    12.000000000000
         F           -3.559660218430     0.683449378598     0.648176309514    18.998403162730
         F           -2.209944218430     0.379920378598     2.388111309514    18.998403162730
         C           -1.268358218430     1.383412378598     0.442146309514    12.000000000000
         C            0.059794781570     0.873620378598     0.026531309514    12.000000000000
         C            1.071974781570     1.769973378598    -0.381964690486    12.000000000000
         C            2.339084781570     1.302954378598    -0.754061690486    12.000000000000
         C            2.616179781570    -0.088792621402    -0.749117690486    12.000000000000
         C            1.587801781570    -0.990360621402    -0.399064690486    12.000000000000
         C            0.313022781570    -0.526767621402    -0.031471690486    12.000000000000
         S            4.179660781570    -0.790940621402    -1.185913690486    31.972071174400
         C            5.160082781570    -0.614901621402     0.325931309514    12.000000000000
         O           -2.880893218430    -2.032787621402     0.614057309514    15.994914619570
         O           -1.540112218430     2.580957378598     0.443736309514    15.994914619570
         H            3.099868781570     2.029253378598    -1.038784690486     1.007825032230
         H            0.845610781570     2.836597378598    -0.387594690486     1.007825032230
         H           -0.610153218430    -2.422705621402    -0.016521690486     1.007825032230
         H            1.788870781570    -2.062500621402    -0.400394690486     1.007825032230
         H            5.408909781570     0.440378378598     0.473394309514     1.007825032230
         H            4.582252781570    -0.980136621402     1.180577309514     1.007825032230
         H            6.078457781570    -1.201123621402     0.225901309514     1.007825032230

  Running in c1 symmetry.

  Rotational constants: A =      0.03510  B =      0.00827  C =      0.00731 [cm^-1]
  Rotational constants: A =   1052.32794  B =    247.91244  C =    219.09091 [MHz]
  Nuclear repulsion = 1178.808827492630826

  Charge       = 0
  Multiplicity = 1
  Electrons    = 124
  Nalpha       = 62
  Nbeta        = 62

  ==> Algorithm <==

  SCF Algorithm Type is DF.
  DIIS enabled.
  MOM disabled.
  Fractional occupation disabled.
  Guess Type is SAD.
  Energy threshold   = 1.00e-06
  Density threshold  = 1.00e-06
  Integral threshold = 0.00e+00

  ==> Primary Basis <==

  Basis Set: AUG-CC-PVDZ
    Blend: AUG-CC-PVDZ
    Number of shells: 181
    Number of basis function: 435
    Number of Cartesian functions: 467
    Spherical Harmonics?: true
    Max angular momentum: 2

  ==> DFT Potential <==

   => Composite Functional: WB97X-D <= 

    wB97X-D Hyb-GGA Exchange-Correlation Functional

    J.-D. Chai and M. Head-Gordon, Phys. Chem. Chem. Phys. 10, 6615 (2008)

    Deriv               =              1
    GGA                 =           TRUE
    Meta                =          FALSE

    Exchange Hybrid     =           TRUE
    MP2 Hybrid          =          FALSE

   => Exchange-Correlation Functionals <=

    1.0000   wB97D range-separated functional

   => Exact (HF) Exchange <=

    0.7780            HF,LR [omega = 0.2000]
    0.2220               HF 

   => Molecular Quadrature <=

    Radial Scheme          =       TREUTLER
    Pruning Scheme         =           FLAT
    Nuclear Scheme         =       TREUTLER

    BS radius alpha        =              1
    Pruning alpha          =              1
    Radial Points          =             75
    Spherical Points       =            302
    Total Points           =         520950
    Total Blocks           =           3870
    Max Points             =            256
    Max Functions          =            395

   => WB97X-D: Empirical Dispersion <=

    Chai and Head-Gordon Dispersion Correction
    Chai, J.-D.; Head-Gordon, M. (2010), J. Chem. Phys., 132: 6615-6620

        s6 =       1.000000

   => Loading Basis Set <=

    Name: (AUG-CC-PVDZ AUX)
    Role: JKFIT
    Keyword: DF_BASIS_SCF
    atoms 1             entry N          line   212 file /fsx/users/francis/anaconda3/envs/poltype-dev/share/psi4/basis/aug-cc-pvdz-jkfit.gbs 
    atoms 2-3, 6-12, 14 entry C          line   154 file /fsx/users/francis/anaconda3/envs/poltype-dev/share/psi4/basis/aug-cc-pvdz-jkfit.gbs 
    atoms 4-5           entry F          line   328 file /fsx/users/francis/anaconda3/envs/poltype-dev/share/psi4/basis/aug-cc-pvdz-jkfit.gbs 
    atoms 13            entry S          line   690 file /fsx/users/francis/anaconda3/envs/poltype-dev/share/psi4/basis/aug-cc-pvdz-jkfit.gbs 
    atoms 15-16         entry O          line   270 file /fsx/users/francis/anaconda3/envs/poltype-dev/share/psi4/basis/aug-cc-pvdz-jkfit.gbs 
    atoms 17-23         entry H          line    70 file /fsx/users/francis/anaconda3/envs/poltype-dev/share/psi4/basis/aug-cc-pvdz-jkfit.gbs 

  ==> Pre-Iterations <==

   -------------------------------------------------------
    Irrep   Nso     Nmo     Nalpha   Nbeta   Ndocc  Nsocc
   -------------------------------------------------------
     A        435     435       0       0       0       0
   -------------------------------------------------------
    Total     435     435      62      62      62       0
   -------------------------------------------------------

  ==> Integral Setup <==

  ==> DiskDFJK: Density-Fitted J/K Matrices <==

    J tasked:                  Yes
    K tasked:                  Yes
    wK tasked:                 Yes
    Omega:               2.000E-01
    OpenMP threads:              8
    Integrals threads:           8
    Memory [MiB]:             6790
    Algorithm:                Core
    Integral Cache:           NONE
    Schwarz Cutoff:          1E-12
    Fitting Condition:       1E-10

   => Auxiliary Basis Set <=

  Basis Set: (AUG-CC-PVDZ AUX)
    Blend: AUG-CC-PVDZ-JKFIT
    Number of shells: 544
    Number of basis function: 1642
    Number of Cartesian functions: 1910
    Spherical Harmonics?: true
    Max angular momentum: 3

  Cached 100.0% of DFT collocation blocks in 4.544 [GiB].

  Minimum eigenvalue in the overlap matrix is 1.5077595196E-06.
  Using Symmetric Orthogonalization.

  SCF Guess: Superposition of Atomic Densities via on-the-fly atomic UHF.

  ==> Iterations <==

                           Total Energy        Delta E     RMS |[F,P]|

   @DF-RKS iter SAD: -1187.39360760907425   -1.18739e+03   0.00000e+00 
   @DF-RKS iter   1: -1187.69039058522526   -2.96783e-01   2.41950e-03 DIIS
   @DF-RKS iter   2: -1187.69825554623503   -7.86496e-03   2.63090e-03 DIIS
   @DF-RKS iter   3: -1188.17407791104233   -4.75822e-01   6.21476e-04 DIIS
   @DF-RKS iter   4: -1188.20248738653254   -2.84095e-02   1.62082e-04 DIIS
   @DF-RKS iter   5: -1188.20468483935088   -2.19745e-03   4.64175e-05 DIIS
   @DF-RKS iter   6: -1188.20490843750895   -2.23598e-04   1.57471e-05 DIIS
   @DF-RKS iter   7: -1188.20493473345891   -2.62959e-05   4.87146e-06 DIIS
   @DF-RKS iter   8: -1188.20493974010674   -5.00665e-06   1.75283e-06 DIIS
   @DF-RKS iter   9: -1188.20494097418600   -1.23408e-06   1.07474e-06 DIIS
   @DF-RKS iter  10: -1188.20494120168746   -2.27501e-07   4.09670e-07 DIIS
  Energy and wave function converged.


  ==> Post-Iterations <==

    Orbital Energies [Eh]
    ---------------------

    Doubly Occupied:                                                      

       1A    -89.069898     2A    -24.879941     3A    -24.867911  
       4A    -19.304441     5A    -19.288065     6A    -14.536577  
       7A    -10.509310     8A    -10.455601     9A    -10.436320  
      10A    -10.407755    11A    -10.379084    12A    -10.356635  
      13A    -10.352321    14A    -10.350090    15A    -10.345604  
      16A    -10.343945    17A     -8.087407    18A     -6.037279  
      19A     -6.033148    20A     -6.026180    21A     -1.385602  
      22A     -1.327155    23A     -1.188944    24A     -1.181007  
      25A     -1.093668    26A     -1.000461    27A     -0.938493  
      28A     -0.904106    29A     -0.888600    30A     -0.866830  
      31A     -0.792599    32A     -0.765757    33A     -0.752355  
      34A     -0.740081    35A     -0.695967    36A     -0.678082  
      37A     -0.668674    38A     -0.643512    39A     -0.628993  
      40A     -0.591294    41A     -0.579831    42A     -0.568693  
      43A     -0.562536    44A     -0.557472    45A     -0.555533  
      46A     -0.548700    47A     -0.539284    48A     -0.533785  
      49A     -0.527432    50A     -0.516742    51A     -0.512125  
      52A     -0.500560    53A     -0.494283    54A     -0.480498  
      55A     -0.474091    56A     -0.440872    57A     -0.420396  
      58A     -0.397773    59A     -0.371913    60A     -0.368314  
      61A     -0.340290    62A     -0.332472  

    Virtual:                                                              

      63A     -0.057401    64A      0.006611    65A      0.024100  
      66A      0.032394    67A      0.036356    68A      0.041000  
      69A      0.049094    70A      0.057032    71A      0.058735  
      72A      0.065059    73A      0.072862    74A      0.077805  
      75A      0.082961    76A      0.090065    77A      0.093799  
      78A      0.101353    79A      0.105777    80A      0.109852  
      81A      0.111676    82A      0.115624    83A      0.119941  
      84A      0.124000    85A      0.129407    86A      0.132799  
      87A      0.136398    88A      0.138630    89A      0.147069  
      90A      0.149763    91A      0.155051    92A      0.158252  
      93A      0.159460    94A      0.165412    95A      0.168089  
      96A      0.172211    97A      0.174313    98A      0.175653  
      99A      0.180838   100A      0.181725   101A      0.188190  
     102A      0.193463   103A      0.198818   104A      0.203372  
     105A      0.209617   106A      0.211767   107A      0.217134  
     108A      0.221283   109A      0.225806   110A      0.230354  
     111A      0.232867   112A      0.235599   113A      0.239315  
     114A      0.247261   115A      0.249313   116A      0.252335  
     117A      0.257550   118A      0.259877   119A      0.263425  
     120A      0.269190   121A      0.272752   122A      0.278260  
     123A      0.280358   124A      0.281985   125A      0.288900  
     126A      0.294488   127A      0.297566   128A      0.301704  
     129A      0.306533   130A      0.308652   131A      0.311678  
     132A      0.322425   133A      0.324828   134A      0.325438  
     135A      0.328356   136A      0.336297   137A      0.338989  
     138A      0.345304   139A      0.348002   140A      0.353389  
     141A      0.361738   142A      0.365719   143A      0.367114  
     144A      0.373147   145A      0.376857   146A      0.378673  
     147A      0.382483   148A      0.385611   149A      0.389399  
     150A      0.394444   151A      0.403568   152A      0.408264  
     153A      0.410398   154A      0.414359   155A      0.416325  
     156A      0.419485   157A      0.432405   158A      0.435684  
     159A      0.440954   160A      0.443691   161A      0.451581  
     162A      0.461614   163A      0.463850   164A      0.472747  
     165A      0.479808   166A      0.483431   167A      0.487999  
     168A      0.490268   169A      0.496662   170A      0.503637  
     171A      0.511432   172A      0.516531   173A      0.521341  
     174A      0.531693   175A      0.534517   176A      0.540106  
     177A      0.542257   178A      0.548429   179A      0.552438  
     180A      0.562092   181A      0.565634   182A      0.576550  
     183A      0.581204   184A      0.589520   185A      0.594476  
     186A      0.599103   187A      0.603205   188A      0.613664  
     189A      0.617882   190A      0.621472   191A      0.626462  
     192A      0.634889   193A      0.638945   194A      0.640995  
     195A      0.643468   196A      0.652059   197A      0.657573  
     198A      0.663322   199A      0.667915   200A      0.670123  
     201A      0.675766   202A      0.680164   203A      0.688767  
     204A      0.693502   205A      0.697187   206A      0.702003  
     207A      0.709192   208A      0.717283   209A      0.727048  
     210A      0.734134   211A      0.741258   212A      0.751114  
     213A      0.754010   214A      0.755563   215A      0.766433  
     216A      0.770212   217A      0.775313   218A      0.778924  
     219A      0.792240   220A      0.796795   221A      0.805499  
     222A      0.806802   223A      0.816851   224A      0.820628  
     225A      0.827213   226A      0.837653   227A      0.841033  
     228A      0.843230   229A      0.847880   230A      0.855230  
     231A      0.862345   232A      0.872967   233A      0.880039  
     234A      0.892283   235A      0.901665   236A      0.910477  
     237A      0.918709   238A      0.933488   239A      0.941236  
     240A      0.945450   241A      0.951601   242A      0.970549  
     243A      0.975702   244A      0.991157   245A      0.999259  
     246A      1.007191   247A      1.015551   248A      1.025008  
     249A      1.034158   250A      1.043385   251A      1.056568  
     252A      1.066924   253A      1.069894   254A      1.080830  
     255A      1.095501   256A      1.100170   257A      1.105928  
     258A      1.115433   259A      1.134156   260A      1.139966  
     261A      1.146148   262A      1.149802   263A      1.167473  
     264A      1.179557   265A      1.191398   266A      1.192710  
     267A      1.213500   268A      1.221149   269A      1.225677  
     270A      1.240635   271A      1.261796   272A      1.274280  
     273A      1.274773   274A      1.286448   275A      1.296068  
     276A      1.299241   277A      1.313641   278A      1.323233  
     279A      1.341396   280A      1.346475   281A      1.356494  
     282A      1.358246   283A      1.364806   284A      1.382568  
     285A      1.391766   286A      1.402606   287A      1.410763  
     288A      1.414212   289A      1.430877   290A      1.445606  
     291A      1.458589   292A      1.468544   293A      1.473946  
     294A      1.485840   295A      1.498662   296A      1.503323  
     297A      1.520102   298A      1.531792   299A      1.541426  
     300A      1.548839   301A      1.552016   302A      1.561148  
     303A      1.565607   304A      1.579678   305A      1.582292  
     306A      1.594923   307A      1.605232   308A      1.607236  
     309A      1.609549   310A      1.621160   311A      1.631045  
     312A      1.637820   313A      1.643747   314A      1.658265  
     315A      1.667506   316A      1.671146   317A      1.680744  
     318A      1.693886   319A      1.697066   320A      1.713797  
     321A      1.730125   322A      1.733541   323A      1.742495  
     324A      1.755919   325A      1.757793   326A      1.764055  
     327A      1.780755   328A      1.790148   329A      1.802972  
     330A      1.818866   331A      1.826274   332A      1.838906  
     333A      1.845465   334A      1.860189   335A      1.870575  
     336A      1.873328   337A      1.881466   338A      1.895508  
     339A      1.905112   340A      1.914116   341A      1.924078  
     342A      1.931052   343A      1.944490   344A      1.954183  
     345A      1.964993   346A      1.971957   347A      1.987984  
     348A      1.992257   349A      2.001705   350A      2.018685  
     351A      2.029588   352A      2.034240   353A      2.054241  
     354A      2.063396   355A      2.073789   356A      2.083623  
     357A      2.090882   358A      2.097562   359A      2.125281  
     360A      2.130734   361A      2.139682   362A      2.165022  
     363A      2.171559   364A      2.174360   365A      2.197493  
     366A      2.200879   367A      2.217924   368A      2.224982  
     369A      2.235393   370A      2.279601   371A      2.285709  
     372A      2.309751   373A      2.316884   374A      2.330961  
     375A      2.336124   376A      2.345720   377A      2.354789  
     378A      2.367191   379A      2.382204   380A      2.405742  
     381A      2.408937   382A      2.442695   383A      2.475803  
     384A      2.490994   385A      2.512330   386A      2.544124  
     387A      2.574932   388A      2.598978   389A      2.614566  
     390A      2.630178   391A      2.661740   392A      2.666174  
     393A      2.681077   394A      2.694125   395A      2.710655  
     396A      2.725417   397A      2.749601   398A      2.776119  
     399A      2.851259   400A      2.938878   401A      2.952883  
     402A      3.008040   403A      3.026175   404A      3.091330  
     405A      3.128326   406A      3.159492   407A      3.357542  
     408A      3.373022   409A      3.381549   410A      3.422215  
     411A      3.463980   412A      3.470893   413A      3.496455  
     414A      3.503219   415A      3.536699   416A      3.555295  
     417A      3.561290   418A      3.597998   419A      3.684093  
     420A      3.711469   421A      3.750955   422A      3.804874  
     423A      3.859777   424A      3.940997   425A      4.447921  
     426A      4.627337   427A      4.660012   428A      4.692567  
     429A      4.720807   430A      4.745540   431A      4.752606  
     432A      4.777475   433A      4.812398   434A      4.855983  
     435A      4.901729  

    Final Occupation by Irrep:
              A 
    DOCC [    62 ]

  @DF-RKS Final Energy: -1188.20494120168746

   => Energetics <=

    Nuclear Repulsion Energy =           1178.8088274926308259
    One-Electron Energy =               -3972.0433750606712238
    Two-Electron Energy =                1694.5812254487836981
    DFT Exchange-Correlation Energy =     -89.5381551563887825
    Empirical Dispersion Energy =          -0.0134639260419725
    VV10 Nonlocal Energy =                  0.0000000000000000
    Total Energy =                      -1188.2049412016874612

Computation Completed


Properties will be evaluated at   0.429772,   0.073491,   0.315871 [a0]

Properties computed using the SCF density matrix

  Nuclear Dipole Moment: [e a0]
     X:    24.3317      Y:    -2.4755      Z:    -3.6439

  Electronic Dipole Moment: [e a0]
     X:   -21.7757      Y:     2.0094      Z:     3.4406

  Dipole Moment: [e a0]
     X:     2.5560      Y:    -0.4661      Z:    -0.2033     Total:     2.6061

  Dipole Moment: [D]
     X:     6.4966      Y:    -1.1847      Z:    -0.5167     Total:     6.6239


*** tstop() called on cpu-spot-dy-c5n2xlarge-1 at Tue Jun 22 14:32:33 2021
Module time:
	user time   =     693.52 seconds =      11.56 minutes
	system time =       7.37 seconds =       0.12 minutes
	total time  =         93 seconds =       1.55 minutes
Total time:
	user time   =    2272.85 seconds =      37.88 minutes
	system time =      23.65 seconds =       0.39 minutes
	total time  =        313 seconds =       5.22 minutes

       N-Body: Complex Energy (fragments = (1,), basis = (1,): -1188.20494120168746)

   ==> N-Body: Now computing 2-body complexes <==


       N-Body: Computing complex (1/1) with fragments (1, 2) in the basis of fragments (1, 2).


*** tstart() called on cpu-spot-dy-c5n2xlarge-1
*** at Tue Jun 22 14:32:33 2021

   => Loading Basis Set <=

    Name: AUG-CC-PVDZ
    Role: ORBITAL
    Keyword: BASIS
    atoms 1             entry N          line   214 file /fsx/users/francis/anaconda3/envs/poltype-dev/share/psi4/basis/aug-cc-pvdz.gbs 
    atoms 2-3, 6-12, 14 entry C          line   178 file /fsx/users/francis/anaconda3/envs/poltype-dev/share/psi4/basis/aug-cc-pvdz.gbs 
    atoms 4-5           entry F          line   286 file /fsx/users/francis/anaconda3/envs/poltype-dev/share/psi4/basis/aug-cc-pvdz.gbs 
    atoms 13            entry S          line   698 file /fsx/users/francis/anaconda3/envs/poltype-dev/share/psi4/basis/aug-cc-pvdz.gbs 
    atoms 15-16, 24     entry O          line   250 file /fsx/users/francis/anaconda3/envs/poltype-dev/share/psi4/basis/aug-cc-pvdz.gbs 
    atoms 17-23, 25-26  entry H          line    36 file /fsx/users/francis/anaconda3/envs/poltype-dev/share/psi4/basis/aug-cc-pvdz.gbs 


         ---------------------------------------------------------
                                   SCF
               by Justin Turney, Rob Parrish, Andy Simmonett
                          and Daniel G. A. Smith
                              RKS Reference
                        8 Threads,  15258 MiB Core
         ---------------------------------------------------------

  ==> Geometry <==

    Molecular point group: c1
    Full point group: C1

    Geometry (in Angstrom), charge = 0, multiplicity = 1:

       Center              X                  Y                   Z               Mass       
    ------------   -----------------  -----------------  -----------------  -----------------
         N           -0.741005218430    -1.444932621402     0.202892309514    14.003074004430
[...]
         H            5.408909781570     0.440378378598     0.473394309514     1.007825032230
         H            4.582252781570    -0.980136621402     1.180577309514     1.007825032230
         H            6.078457781570    -1.201123621402     0.225901309514     1.007825032230
         O           -3.007485318430    -0.518384021402    -2.270297890486    15.994914619570
         H           -3.402749318430    -1.255378021402    -1.796935890486     1.007825032230
         H           -3.705393318430     0.105027978598    -2.477021890486     1.007825032230

  Running in c1 symmetry.

  Rotational constants: A =      0.02650  B =      0.00737  C =      0.00691 [cm^-1]
  Rotational constants: A =    794.54021  B =    220.97108  C =    207.27000 [MHz]
  Nuclear repulsion = 1333.135660047646297

  Charge       = 0
  Multiplicity = 1
  Electrons    = 134
  Nalpha       = 67
  Nbeta        = 67

  ==> Algorithm <==

  SCF Algorithm Type is DF.
  DIIS enabled.
  MOM disabled.
  Fractional occupation disabled.
  Guess Type is SAD.
  Energy threshold   = 1.00e-06
  Density threshold  = 1.00e-06
  Integral threshold = 0.00e+00

  ==> Primary Basis <==

  Basis Set: AUG-CC-PVDZ
    Blend: AUG-CC-PVDZ
    Number of shells: 200
    Number of basis function: 476
    Number of Cartesian functions: 510
    Spherical Harmonics?: true
    Max angular momentum: 2

  ==> DFT Potential <==

   => Composite Functional: WB97X-D <= 

    wB97X-D Hyb-GGA Exchange-Correlation Functional

    J.-D. Chai and M. Head-Gordon, Phys. Chem. Chem. Phys. 10, 6615 (2008)

    Deriv               =              1
    GGA                 =           TRUE
    Meta                =          FALSE

    Exchange Hybrid     =           TRUE
    MP2 Hybrid          =          FALSE

   => Exchange-Correlation Functionals <=

    1.0000   wB97D range-separated functional

   => Exact (HF) Exchange <=

    0.7780            HF,LR [omega = 0.2000]
    0.2220               HF 

   => Molecular Quadrature <=

    Radial Scheme          =       TREUTLER
    Pruning Scheme         =           FLAT
    Nuclear Scheme         =       TREUTLER

    BS radius alpha        =              1
    Pruning alpha          =              1
    Radial Points          =             75
    Spherical Points       =            302
    Total Points           =         588900
    Total Blocks           =           4352
    Max Points             =            256
    Max Functions          =            429

   => WB97X-D: Empirical Dispersion <=

    Chai and Head-Gordon Dispersion Correction
    Chai, J.-D.; Head-Gordon, M. (2010), J. Chem. Phys., 132: 6615-6620

        s6 =       1.000000

   => Loading Basis Set <=

    Name: (AUG-CC-PVDZ AUX)
    Role: JKFIT
    Keyword: DF_BASIS_SCF
    atoms 1             entry N          line   212 file /fsx/users/francis/anaconda3/envs/poltype-dev/share/psi4/basis/aug-cc-pvdz-jkfit.gbs 
    atoms 2-3, 6-12, 14 entry C          line   154 file /fsx/users/francis/anaconda3/envs/poltype-dev/share/psi4/basis/aug-cc-pvdz-jkfit.gbs 
    atoms 4-5           entry F          line   328 file /fsx/users/francis/anaconda3/envs/poltype-dev/share/psi4/basis/aug-cc-pvdz-jkfit.gbs 
    atoms 13            entry S          line   690 file /fsx/users/francis/anaconda3/envs/poltype-dev/share/psi4/basis/aug-cc-pvdz-jkfit.gbs 
    atoms 15-16, 24     entry O          line   270 file /fsx/users/francis/anaconda3/envs/poltype-dev/share/psi4/basis/aug-cc-pvdz-jkfit.gbs 
    atoms 17-23, 25-26  entry H          line    70 file /fsx/users/francis/anaconda3/envs/poltype-dev/share/psi4/basis/aug-cc-pvdz-jkfit.gbs 

  ==> Pre-Iterations <==

   -------------------------------------------------------
    Irrep   Nso     Nmo     Nalpha   Nbeta   Ndocc  Nsocc
   -------------------------------------------------------
     A        476     476       0       0       0       0
   -------------------------------------------------------
    Total     476     476      67      67      67       0
   -------------------------------------------------------

  ==> Integral Setup <==

  ==> DiskDFJK: Density-Fitted J/K Matrices <==

    J tasked:                  Yes
    K tasked:                  Yes
    wK tasked:                 Yes
    Omega:               2.000E-01
    OpenMP threads:              8
    Integrals threads:           8
    Memory [MiB]:             5925
    Algorithm:                Core
    Integral Cache:           NONE
    Schwarz Cutoff:          1E-12
    Fitting Condition:       1E-10

   => Auxiliary Basis Set <=

  Basis Set: (AUG-CC-PVDZ AUX)
    Blend: AUG-CC-PVDZ-JKFIT
    Number of shells: 596
    Number of basis function: 1792
    Number of Cartesian functions: 2081
    Spherical Harmonics?: true
    Max angular momentum: 3

  Cached 100.0% of DFT collocation blocks in 5.389 [GiB].

  Minimum eigenvalue in the overlap matrix is 1.4553025425E-06.
  Using Symmetric Orthogonalization.

  SCF Guess: Superposition of Atomic Densities via on-the-fly atomic UHF.

  ==> Iterations <==

                           Total Energy        Delta E     RMS |[F,P]|

   @DF-RKS iter SAD: -1263.41502742587818   -1.26342e+03   0.00000e+00 
   @DF-RKS iter   1: -1263.98483439090296   -5.69807e-01   2.54410e-03 DIIS
   @DF-RKS iter   2: -1263.97713169387612    7.70270e-03   2.76010e-03 DIIS
   @DF-RKS iter   3: -1264.60696950302918   -6.29838e-01   5.20471e-04 DIIS
   @DF-RKS iter   4: -1264.62972268350859   -2.27532e-02   1.88717e-04 DIIS
   @DF-RKS iter   5: -1264.63292868635494   -3.20600e-03   5.28305e-05 DIIS
   @DF-RKS iter   6: -1264.63322248592544   -2.93800e-04   1.36371e-05 DIIS
   @DF-RKS iter   7: -1264.63325040457312   -2.79186e-05   4.51519e-06 DIIS
   @DF-RKS iter   8: -1264.63325553761274   -5.13304e-06   1.73425e-06 DIIS
   @DF-RKS iter   9: -1264.63325678574256   -1.24813e-06   1.09957e-06 DIIS
   @DF-RKS iter  10: -1264.63325707137028   -2.85628e-07   3.83338e-07 DIIS
  Energy and wave function converged.


  ==> Post-Iterations <==

    Orbital Energies [Eh]
    ---------------------

    Doubly Occupied:                                                      

       1A    -89.066458     2A    -24.878114     3A    -24.866271  
       4A    -19.300302     5A    -19.287775     6A    -19.279886  
       7A    -14.533387     8A    -10.506810     9A    -10.455612  
      10A    -10.432629    11A    -10.403005    12A    -10.374661  
      13A    -10.352051    14A    -10.347750    15A    -10.345823  
      16A    -10.342638    17A    -10.339774    18A     -8.083952  
      19A     -6.033825    20A     -6.029691    21A     -6.022732  
      22A     -1.383840    23A     -1.325507    24A     -1.189040  
      25A     -1.176974    26A     -1.121267    27A     -1.090533  
      28A     -0.996146    29A     -0.934356    30A     -0.900500  
      31A     -0.884461    32A     -0.863421    33A     -0.789130  
      34A     -0.762320    35A     -0.748756    36A     -0.736796  
      37A     -0.692665    38A     -0.674893    39A     -0.666911  
      40A     -0.640315    41A     -0.634065    42A     -0.625906  
      43A     -0.587308    44A     -0.576322    45A     -0.566857  
      46A     -0.561097    47A     -0.553789    48A     -0.551895  
      49A     -0.546626    50A     -0.536932    51A     -0.530853  
      52A     -0.524657    53A     -0.515179    54A     -0.509228  
      55A     -0.497892    56A     -0.490971    57A     -0.482299  
      58A     -0.477294    59A     -0.470406    60A     -0.438156  
      61A     -0.417212    62A     -0.409073    63A     -0.396757  
      64A     -0.369524    65A     -0.363838    66A     -0.336666  
      67A     -0.328963  

    Virtual:                                                              

      68A     -0.052432    69A      0.010182    70A      0.026427  
      71A      0.033930    72A      0.038335    73A      0.043173  
      74A      0.047702    75A      0.051022    76A      0.058939  
      77A      0.062379    78A      0.068029    79A      0.075310  
      80A      0.079668    81A      0.085094    82A      0.088966  
      83A      0.093658    84A      0.103092    85A      0.105906  
      86A      0.109988    87A      0.113248    88A      0.117171  
      89A      0.118462    90A      0.126321    91A      0.128319  
      92A      0.135075    93A      0.138000    94A      0.138886  
      95A      0.143282    96A      0.150252    97A      0.153549  
      98A      0.156016    99A      0.158633   100A      0.164198  
     101A      0.168788   102A      0.171274   103A      0.171749  
     104A      0.176889   105A      0.179142   106A      0.182943  
     107A      0.186623   108A      0.189280   109A      0.194442  
     110A      0.201168   111A      0.203047   112A      0.208549  
     113A      0.212365   114A      0.214412   115A      0.218552  
     116A      0.224485   117A      0.227011   118A      0.231975  
     119A      0.235416   120A      0.237595   121A      0.240479  
     122A      0.241631   123A      0.246160   124A      0.251716  
     125A      0.257207   126A      0.258996   127A      0.266590  
     128A      0.270644   129A      0.275785   130A      0.276597  
     131A      0.277153   132A      0.281180   133A      0.287178  
     134A      0.287697   135A      0.290565   136A      0.293997  
     137A      0.297804   138A      0.305864   139A      0.309428  
     140A      0.312218   141A      0.316385   142A      0.322259  
     143A      0.323446   144A      0.330813   145A      0.335744  
     146A      0.339150   147A      0.346863   148A      0.348330  
     149A      0.353081   150A      0.356311   151A      0.361351  
     152A      0.362172   153A      0.366561   154A      0.370673  
     155A      0.373099   156A      0.375421   157A      0.381606  
     158A      0.383472   159A      0.387617   160A      0.394197  
     161A      0.398130   162A      0.400814   163A      0.405134  
     164A      0.412077   165A      0.417761   166A      0.419784  
     167A      0.420318   168A      0.428982   169A      0.435415  
     170A      0.437791   171A      0.442550   172A      0.452022  
     173A      0.455546   174A      0.457698   175A      0.467541  
     176A      0.468361   177A      0.476121   178A      0.486866  
     179A      0.489816   180A      0.491026   181A      0.498517  
     182A      0.502569   183A      0.506295   184A      0.511038  
     185A      0.516766   186A      0.521352   187A      0.524406  
     188A      0.533845   189A      0.537150   190A      0.539142  
     191A      0.545451   192A      0.547571   193A      0.554739  
     194A      0.557909   195A      0.565894   196A      0.571742  
     197A      0.575186   198A      0.585416   199A      0.589180  
     200A      0.596117   201A      0.603144   202A      0.605628  
     203A      0.611141   204A      0.617840   205A      0.622644  
     206A      0.629280   207A      0.632191   208A      0.636072  
     209A      0.639839   210A      0.643115   211A      0.645560  
     212A      0.647295   213A      0.652774   214A      0.656012  
     215A      0.665170   216A      0.672687   217A      0.681288  
     218A      0.683237   219A      0.685417   220A      0.688266  
     221A      0.700273   222A      0.702486   223A      0.703794  
     224A      0.709587   225A      0.717476   226A      0.721631  
     227A      0.731332   228A      0.741713   229A      0.743260  
     230A      0.750696   231A      0.754558   232A      0.764183  
     233A      0.774517   234A      0.778096   235A      0.785144  
     236A      0.790945   237A      0.792804   238A      0.797958  
     239A      0.808989   240A      0.812959   241A      0.817717  
     242A      0.822575   243A      0.830743   244A      0.834093  
     245A      0.839123   246A      0.849556   247A      0.851533  
     248A      0.859223   249A      0.862037   250A      0.865270  
     251A      0.875039   252A      0.884833   253A      0.894889  
     254A      0.905092   255A      0.913325   256A      0.921349  
     257A      0.926231   258A      0.930433   259A      0.942624  
     260A      0.949831   261A      0.962329   262A      0.969220  
     263A      0.980693   264A      0.987606   265A      0.997467  
     266A      1.003255   267A      1.012937   268A      1.016960  
     269A      1.027919   270A      1.035339   271A      1.057742  
     272A      1.060134   273A      1.069745   274A      1.073908  
     275A      1.084218   276A      1.089077   277A      1.097655  
     278A      1.106043   279A      1.119599   280A      1.127483  
     281A      1.130924   282A      1.142480   283A      1.145581  
     284A      1.150709   285A      1.168991   286A      1.177428  
     287A      1.188104   288A      1.192562   289A      1.199981  
     290A      1.212559   291A      1.222644   292A      1.239590  
     293A      1.243520   294A      1.251165   295A      1.269932  
     296A      1.280850   297A      1.289038   298A      1.297077  
     299A      1.304538   300A      1.312705   301A      1.319841  
     302A      1.330029   303A      1.348367   304A      1.349653  
     305A      1.353364   306A      1.364026   307A      1.365788  
     308A      1.377736   309A      1.397058   310A      1.402973  
     311A      1.406696   312A      1.416764   313A      1.424630  
     314A      1.429257   315A      1.436094   316A      1.450733  
     317A      1.470591   318A      1.475618   319A      1.477092  
     320A      1.492077   321A      1.507896   322A      1.510680  
     323A      1.517920   324A      1.537784   325A      1.547187  
     326A      1.550305   327A      1.558728   328A      1.561416  
     329A      1.569046   330A      1.575813   331A      1.582596  
     332A      1.595353   333A      1.608255   334A      1.611372  
     335A      1.615662   336A      1.616787   337A      1.628292  
     338A      1.637074   339A      1.640668   340A      1.653914  
     341A      1.667393   342A      1.674661   343A      1.681273  
     344A      1.691531   345A      1.702532   346A      1.706262  
     347A      1.716815   348A      1.724161   349A      1.741530  
     350A      1.753607   351A      1.763427   352A      1.769668  
     353A      1.775604   354A      1.785742   355A      1.797779  
     356A      1.802855   357A      1.821313   358A      1.833927  
     359A      1.835464   360A      1.855092   361A      1.858461  
     362A      1.867269   363A      1.873202   364A      1.880281  
     365A      1.886226   366A      1.901969   367A      1.909964  
     368A      1.917444   369A      1.919391   370A      1.928626  
     371A      1.940644   372A      1.954438   373A      1.957171  
     374A      1.975151   375A      1.981912   376A      1.985908  
     377A      2.003112   378A      2.014666   379A      2.020307  
     380A      2.027124   381A      2.035051   382A      2.052608  
     383A      2.067603   384A      2.077617   385A      2.079525  
     386A      2.086617   387A      2.097329   388A      2.103282  
     389A      2.121457   390A      2.132003   391A      2.152234  
     392A      2.164917   393A      2.172570   394A      2.181292  
     395A      2.189789   396A      2.205853   397A      2.207296  
     398A      2.226978   399A      2.241163   400A      2.254950  
     401A      2.280060   402A      2.290107   403A      2.293767  
     404A      2.305857   405A      2.320378   406A      2.336334  
     407A      2.342123   408A      2.351072   409A      2.356519  
     410A      2.369929   411A      2.375826   412A      2.407536  
     413A      2.421362   414A      2.438766   415A      2.442693  
     416A      2.480252   417A      2.495085   418A      2.501012  
     419A      2.538423   420A      2.561349   421A      2.591279  
     422A      2.605299   423A      2.615914   424A      2.629679  
     425A      2.650231   426A      2.672483   427A      2.693937  
     428A      2.702492   429A      2.709551   430A      2.719504  
     431A      2.734925   432A      2.757771   433A      2.816309  
     434A      2.848912   435A      2.864795   436A      2.956935  
     437A      2.989483   438A      3.021292   439A      3.040630  
     440A      3.116798   441A      3.177788   442A      3.186508  
     443A      3.385728   444A      3.394614   445A      3.401163  
     446A      3.425327   447A      3.454281   448A      3.467761  
     449A      3.481686   450A      3.494588   451A      3.506969  
     452A      3.516104   453A      3.544768   454A      3.562433  
     455A      3.586549   456A      3.597956   457A      3.632450  
     458A      3.697349   459A      3.725141   460A      3.765835  
     461A      3.802748   462A      3.841812   463A      3.899327  
     464A      4.007868   465A      4.047559   466A      4.459458  
     467A      4.634745   468A      4.670914   469A      4.706738  
     470A      4.728073   471A      4.751230   472A      4.759089  
     473A      4.787116   474A      4.827428   475A      4.880221  
     476A      4.909241  

    Final Occupation by Irrep:
              A 
    DOCC [    67 ]

  @DF-RKS Final Energy: -1264.63325707137028

   => Energetics <=

    Nuclear Repulsion Energy =           1333.1356600476462972
    One-Electron Energy =               -4385.6780951484852267
    Two-Electron Energy =                1883.9397545411275132
    DFT Exchange-Correlation Energy =     -96.0145390977634179
    Empirical Dispersion Energy =          -0.0160374138956919
    VV10 Nonlocal Energy =                  0.0000000000000000
    Total Energy =                      -1264.6332570713702808

Computation Completed


Properties will be evaluated at   0.000000,  -0.000000,   0.000000 [a0]

Properties computed using the SCF density matrix

  Nuclear Dipole Moment: [e a0]
     X:    18.7244      Y:    -3.3733      Z:    -6.8744

  Electronic Dipole Moment: [e a0]
     X:   -16.8834      Y:     2.8775      Z:     6.7579

  Dipole Moment: [e a0]
     X:     1.8410      Y:    -0.4958      Z:    -0.1165     Total:     1.9102

  Dipole Moment: [D]
     X:     4.6795      Y:    -1.2601      Z:    -0.2962     Total:     4.8552


*** tstop() called on cpu-spot-dy-c5n2xlarge-1 at Tue Jun 22 14:34:36 2021
Module time:
	user time   =     904.42 seconds =      15.07 minutes
	system time =       9.22 seconds =       0.15 minutes
	total time  =        123 seconds =       2.05 minutes
Total time:
	user time   =    3177.31 seconds =      52.96 minutes
	system time =      32.87 seconds =       0.55 minutes
	total time  =        436 seconds =       7.27 minutes

       N-Body: Complex Energy (fragments = (1, 2), basis = (1, 2): -1264.63325707137028)

   ==> N-Body: Counterpoise Corrected (CP) energies <==

   n-Body     Total Energy [Eh]       I.E. [kcal/mol]      Delta [kcal/mol]
        1    -1264.624474013246        0.000000000000        0.000000000000
        2    -1264.632609411247       -5.105039318758       -5.105039318758

   => Loading Basis Set <=

    Name: DEF2-SVP
    Role: ORBITAL
    Keyword: BASIS
    atoms 1             entry N          line   110 file /fsx/users/francis/anaconda3/envs/poltype-dev/share/psi4/basis/def2-svp.gbs 
    atoms 2-3, 6-12, 14 entry C          line    90 file /fsx/users/francis/anaconda3/envs/poltype-dev/share/psi4/basis/def2-svp.gbs 
    atoms 4-5           entry F          line   150 file /fsx/users/francis/anaconda3/envs/poltype-dev/share/psi4/basis/def2-svp.gbs 
    atoms 13            entry S          line   328 file /fsx/users/francis/anaconda3/envs/poltype-dev/share/psi4/basis/def2-svp.gbs 
    atoms 15-16, 24     entry O          line   130 file /fsx/users/francis/anaconda3/envs/poltype-dev/share/psi4/basis/def2-svp.gbs 
    atoms 17-23, 25-26  entry H          line    15 file /fsx/users/francis/anaconda3/envs/poltype-dev/share/psi4/basis/def2-svp.gbs 

CP Energy =  -0.008135
    Psi4 stopped on: Tuesday, 22 June 2021 02:34PM
    Psi4 wall time for execution: 0:07:15.82

*** Psi4 exiting successfully. Buy a developer a beer!
