
    -----------------------------------------------------------------------
          Psi4: An Open-Source Ab Initio Electronic Structure Package
                               Psi4 1.3.2 release

                         Git: Rev {HEAD} ecbda83 


    R. M. Parrish, L. A. Burns, D. G. A. Smith, A. C. Simmonett,
    A. E. DePrince III, E. G. Hohenstein, U. Bozkaya, A. Yu. Sokolov,
    R. Di Remigio, R. M. Richard, J. F. Gonthier, A. M. James,
    H. R. McAlexander, A. Kumar, M. Saitow, X. Wang, B. P. Pritchard,
    P. Verma, H. F. Schaefer III, K. Patkowski, R. A. King, E. F. Valeev,
    F. A. Evangelista, J. M. Turney, T. D. Crawford, and C. D. Sherrill,
    J. Chem. Theory Comput. 13(7) pp 3185--3197 (2017).
    (doi: 10.1021/acs.jctc.7b00174)


                         Additional Contributions by
    P. Kraus, H. Kruse, M. H. Lechner, M. C. Schieber, R. A. Shaw,
    A. Alenaizan, R. Galvelis, Z. L. Glick, S. Lehtola, and J. P. Misiewicz

    -----------------------------------------------------------------------


    Psi4 started on: Tuesday, 22 June 2021 05:32PM

    Process ID: 28794
    Host:       cpu-spot-dy-c5n2xlarge-1
    PSIDATADIR: /fsx/users/francis/anaconda3/envs/poltype-dev/share/psi4
    Memory:     500.0 MiB
    Threads:    1
    
  ==> Input File <==

--------------------------------------------------------------------------
molecule { 
0 1
  N                 -0.8329220    -1.4316820     0.0850080
  C                 -2.1158040    -1.1558080     0.4843320
  C                 -2.4289050     0.3591460     0.7054530
  F                 -3.7555890     0.5940930     0.3944060
  F                 -2.2736550     0.6195540     2.0481740
  C                 -1.5199820     1.3601920    -0.0901970
  C                 -0.1640620     0.8757330    -0.4452730
  C                  0.7840340     1.7520530    -1.0162350
  C                  2.0710080     1.3050290    -1.3425650
  C                  2.4281110    -0.0524070    -1.1340790
  C                  1.4580920    -0.9467950    -0.6323440
  C                  0.1650140    -0.5031110    -0.3071010
  S                  4.0263480    -0.7214740    -1.4867930
  C                  4.9860630    -0.3162710    -0.0061480
  O                 -2.9120640    -2.0610510     0.6968400
  O                 -1.8772710     2.5202120    -0.2916330
  H                  2.7862340     2.0217350    -1.7452190
  H                  0.4932850     2.7892110    -1.1843840
  H                 -0.6535010    -2.4233640     0.0118350
  H                  1.7211530    -1.9936930    -0.4758020
  H                  5.0542680     0.7713970     0.0950450
  H                  4.4911080    -0.7384740     0.8741880
  H                  5.9893040    -0.7414380    -0.1033230
--
0 1
  O                 -2.6936798    -0.0054481    -2.5059598
  H                 -3.4256778    -0.6210061    -2.5835498
  H                 -2.9715898     0.8251619    -2.8982098
}
memory 16GB
set_num_threads(8)
psi4_io.set_default_path("/scratch/Psi4-ligand")
set maxiter 500
set freeze_core True
set PROPERTIES_ORIGIN ["COM"]
e_dim= energy('wb97x-d/aug-cc-pVDZ',bsse_type='cp')

psi4.print_out('CP Energy = %10.6f' % (e_dim))
clean()
--------------------------------------------------------------------------

  Memory set to  14.901 GiB by Python driver.
  Threads set to 8 by Python driver.


   ===> N-Body Interaction Abacus <===
        BSSE Treatment:                     cp
        Number of 1-body computations:     4
        Number of 2-body computations:     1

   ==> N-Body: Now computing 1-body complexes <==


       N-Body: Computing complex (1/4) with fragments (2,) in the basis of fragments (2,).


*** tstart() called on cpu-spot-dy-c5n2xlarge-1
*** at Tue Jun 22 17:32:24 2021

   => Loading Basis Set <=

    Name: AUG-CC-PVDZ
    Role: ORBITAL
    Keyword: BASIS
    atoms 1   entry O          line   250 file /fsx/users/francis/anaconda3/envs/poltype-dev/share/psi4/basis/aug-cc-pvdz.gbs 
    atoms 2-3 entry H          line    36 file /fsx/users/francis/anaconda3/envs/poltype-dev/share/psi4/basis/aug-cc-pvdz.gbs 


         ---------------------------------------------------------
                                   SCF
               by Justin Turney, Rob Parrish, Andy Simmonett
                          and Daniel G. A. Smith
                              RKS Reference
                        8 Threads,  15258 MiB Core
         ---------------------------------------------------------

  ==> Geometry <==

    Molecular point group: c1
    Full point group: C1

    Geometry (in Angstrom), charge = 0, multiplicity = 1:

       Center              X                  Y                   Z               Mass       
    ------------   -----------------  -----------------  -----------------  -----------------
         O           -2.557234031876    -0.079085216114    -2.172570312628    15.994914619570
         H           -3.289232031876    -0.694643216114    -2.250160312628     1.007825032230
         H           -2.835144031876     0.751524783886    -2.564820312628     1.007825032230

  Running in c1 symmetry.

  Rotational constants: A =     13.43098  B =      0.07997  C =      0.07954 [cm^-1]
  Rotational constants: A = 402650.67144  B =   2397.56661  C =   2384.62893 [MHz]
  Nuclear repulsion =    9.164891593603709

  Charge       = 0
  Multiplicity = 1
  Electrons    = 10
  Nalpha       = 5
  Nbeta        = 5

  ==> Algorithm <==

  SCF Algorithm Type is DF.
  DIIS enabled.
  MOM disabled.
  Fractional occupation disabled.
  Guess Type is SAD.
  Energy threshold   = 1.00e-06
  Density threshold  = 1.00e-06
  Integral threshold = 0.00e+00

  ==> Primary Basis <==

  Basis Set: AUG-CC-PVDZ
    Blend: AUG-CC-PVDZ
    Number of shells: 19
    Number of basis function: 41
    Number of Cartesian functions: 43
    Spherical Harmonics?: true
    Max angular momentum: 2

  ==> DFT Potential <==

   => Composite Functional: WB97X-D <= 

    wB97X-D Hyb-GGA Exchange-Correlation Functional

    J.-D. Chai and M. Head-Gordon, Phys. Chem. Chem. Phys. 10, 6615 (2008)

    Deriv               =              1
    GGA                 =           TRUE
    Meta                =          FALSE

    Exchange Hybrid     =           TRUE
    MP2 Hybrid          =          FALSE

   => Exchange-Correlation Functionals <=

    1.0000   wB97D range-separated functional

   => Exact (HF) Exchange <=

    0.7780            HF,LR [omega = 0.2000]
    0.2220               HF 

   => Molecular Quadrature <=

    Radial Scheme          =       TREUTLER
    Pruning Scheme         =           FLAT
    Nuclear Scheme         =       TREUTLER

    BS radius alpha        =              1
    Pruning alpha          =              1
    Radial Points          =             75
    Spherical Points       =            302
    Total Points           =          67950
    Total Blocks           =            567
    Max Points             =            256
    Max Functions          =             41

   => WB97X-D: Empirical Dispersion <=

    Chai and Head-Gordon Dispersion Correction
    Chai, J.-D.; Head-Gordon, M. (2010), J. Chem. Phys., 132: 6615-6620

        s6 =       1.000000

   => Loading Basis Set <=

    Name: (AUG-CC-PVDZ AUX)
    Role: JKFIT
    Keyword: DF_BASIS_SCF
    atoms 1   entry O          line   270 file /fsx/users/francis/anaconda3/envs/poltype-dev/share/psi4/basis/aug-cc-pvdz-jkfit.gbs 
    atoms 2-3 entry H          line    70 file /fsx/users/francis/anaconda3/envs/poltype-dev/share/psi4/basis/aug-cc-pvdz-jkfit.gbs 

  ==> Pre-Iterations <==

   -------------------------------------------------------
    Irrep   Nso     Nmo     Nalpha   Nbeta   Ndocc  Nsocc
   -------------------------------------------------------
     A         41      41       0       0       0       0
   -------------------------------------------------------
    Total      41      41       5       5       5       0
   -------------------------------------------------------

  ==> Integral Setup <==

  ==> DiskDFJK: Density-Fitted J/K Matrices <==

    J tasked:                  Yes
    K tasked:                  Yes
    wK tasked:                 Yes
    Omega:               2.000E-01
    OpenMP threads:              8
    Integrals threads:           8
    Memory [MiB]:            11363
    Algorithm:                Core
    Integral Cache:           NONE
    Schwarz Cutoff:          1E-12
    Fitting Condition:       1E-10

   => Auxiliary Basis Set <=

  Basis Set: (AUG-CC-PVDZ AUX)
    Blend: AUG-CC-PVDZ-JKFIT
    Number of shells: 52
    Number of basis function: 150
    Number of Cartesian functions: 171
    Spherical Harmonics?: true
    Max angular momentum: 3

  Cached 100.0% of DFT collocation blocks in 0.079 [GiB].

  Minimum eigenvalue in the overlap matrix is 2.8082563666E-03.
  Using Symmetric Orthogonalization.

  SCF Guess: Superposition of Atomic Densities via on-the-fly atomic UHF.

  ==> Iterations <==

                           Total Energy        Delta E     RMS |[F,P]|

   @DF-RKS iter SAD:   -75.95321017021445   -7.59532e+01   0.00000e+00 
   @DF-RKS iter   1:   -76.27484131911571   -3.21631e-01   1.51010e-02 DIIS
   @DF-RKS iter   2:   -76.22800118222679    4.68401e-02   1.78014e-02 DIIS
   @DF-RKS iter   3:   -76.41941811539199   -1.91417e-01   3.63289e-04 DIIS
   @DF-RKS iter   4:   -76.41956276375909   -1.44648e-04   9.79730e-05 DIIS
   @DF-RKS iter   5:   -76.41957059818539   -7.83443e-06   1.86377e-05 DIIS
   @DF-RKS iter   6:   -76.41957092164300   -3.23458e-07   2.00451e-06 DIIS
   @DF-RKS iter   7:   -76.41957093204307   -1.04001e-08   2.52178e-07 DIIS
  Energy and wave function converged.


  ==> Post-Iterations <==

    Orbital Energies [Eh]
    ---------------------

    Doubly Occupied:                                                      

       1A    -19.278507     2A     -1.119752     3A     -0.631221  
       4A     -0.479253     5A     -0.406793  

    Virtual:                                                              

       6A      0.033978     7A      0.060980     8A      0.162056  
       9A      0.190838    10A      0.199602    11A      0.217819  
      12A      0.255234    13A      0.302250    14A      0.362190  
      15A      0.377385    16A      0.407480    17A      0.518555  
      18A      0.579937    19A      0.603767    20A      0.715999  
      21A      0.810971    22A      0.980942    23A      0.992734  
      24A      1.034567    25A      1.172285    26A      1.288666  
      27A      1.314878    28A      1.397561    29A      1.818333  
      30A      1.849014    31A      1.921660    32A      2.227744  
      33A      2.229295    34A      2.375882    35A      2.497143  
      36A      2.714499    37A      3.372907    38A      3.384970  
      39A      3.402363    40A      3.734012    41A      3.969760  

    Final Occupation by Irrep:
              A 
    DOCC [     5 ]

  @DF-RKS Final Energy:   -76.41957093204307

   => Energetics <=

    Nuclear Repulsion Energy =              9.1648915936037092
    One-Electron Energy =                -122.9438363745064891
    Two-Electron Energy =                  43.8319368268919334
    DFT Exchange-Correlation Energy =      -6.4725325559265698
    Empirical Dispersion Energy =          -0.0000304221056586
    VV10 Nonlocal Energy =                  0.0000000000000000
    Total Energy =                        -76.4195709320430581

Computation Completed


Properties will be evaluated at  -4.939264,  -0.126709,  -4.155246 [a0]

Properties computed using the SCF density matrix

  Nuclear Dipole Moment: [e a0]
     X:    -0.8405      Y:     0.1790      Z:    -0.3910

  Electronic Dipole Moment: [e a0]
     X:     0.1952      Y:    -0.0416      Z:     0.0908

  Dipole Moment: [e a0]
     X:    -0.6453      Y:     0.1374      Z:    -0.3002     Total:     0.7249

  Dipole Moment: [D]
     X:    -1.6402      Y:     0.3492      Z:    -0.7631     Total:     1.8425


*** tstop() called on cpu-spot-dy-c5n2xlarge-1 at Tue Jun 22 17:32:25 2021
Module time:
	user time   =       8.08 seconds =       0.13 minutes
	system time =       0.29 seconds =       0.00 minutes
	total time  =          1 seconds =       0.02 minutes
Total time:
	user time   =       8.08 seconds =       0.13 minutes
	system time =       0.29 seconds =       0.00 minutes
	total time  =          1 seconds =       0.02 minutes

       N-Body: Complex Energy (fragments = (2,), basis = (2,):   -76.41957093204307)

       N-Body: Computing complex (2/4) with fragments (2,) in the basis of fragments (1, 2).


*** tstart() called on cpu-spot-dy-c5n2xlarge-1
*** at Tue Jun 22 17:32:25 2021

   => Loading Basis Set <=

    Name: AUG-CC-PVDZ
    Role: ORBITAL
    Keyword: BASIS
    atoms 1             entry N          line   214 file /fsx/users/francis/anaconda3/envs/poltype-dev/share/psi4/basis/aug-cc-pvdz.gbs 
    atoms 2-3, 6-12, 14 entry C          line   178 file /fsx/users/francis/anaconda3/envs/poltype-dev/share/psi4/basis/aug-cc-pvdz.gbs 
    atoms 4-5           entry F          line   286 file /fsx/users/francis/anaconda3/envs/poltype-dev/share/psi4/basis/aug-cc-pvdz.gbs 
    atoms 13            entry S          line   698 file /fsx/users/francis/anaconda3/envs/poltype-dev/share/psi4/basis/aug-cc-pvdz.gbs 
    atoms 15-16, 24     entry O          line   250 file /fsx/users/francis/anaconda3/envs/poltype-dev/share/psi4/basis/aug-cc-pvdz.gbs 
    atoms 17-23, 25-26  entry H          line    36 file /fsx/users/francis/anaconda3/envs/poltype-dev/share/psi4/basis/aug-cc-pvdz.gbs 


         ---------------------------------------------------------
                                   SCF
               by Justin Turney, Rob Parrish, Andy Simmonett
                          and Daniel G. A. Smith
                              RKS Reference
                        8 Threads,  15258 MiB Core
         ---------------------------------------------------------

  ==> Geometry <==

    Molecular point group: c1
    Full point group: C1

    Geometry (in Angstrom), charge = 0, multiplicity = 1:

       Center              X                  Y                   Z               Mass       
    ------------   -----------------  -----------------  -----------------  -----------------
      Gh(N)          -0.696476231876    -1.505319116114     0.418397487372    14.003074004430
      Gh(C)          -1.979358231876    -1.229445116114     0.817721487372    12.000000000000
      Gh(C)          -2.292459231876     0.285508883886     1.038842487372    12.000000000000
      Gh(F)          -3.619143231876     0.520455883886     0.727795487372    18.998403162730
      Gh(F)          -2.137209231876     0.545916883886     2.381563487372    18.998403162730
      Gh(C)          -1.383536231876     1.286554883886     0.243192487372    12.000000000000
      Gh(C)          -0.027616231876     0.802095883886    -0.111883512628    12.000000000000
      Gh(C)           0.920479768124     1.678415883886    -0.682845512628    12.000000000000
      Gh(C)           2.207453768124     1.231391883886    -1.009175512628    12.000000000000
      Gh(C)           2.564556768124    -0.126044116114    -0.800689512628    12.000000000000
      Gh(C)           1.594537768124    -1.020432116114    -0.298954512628    12.000000000000
      Gh(C)           0.301459768124    -0.576748116114     0.026288487372    12.000000000000
      Gh(S)           4.162793768124    -0.795111116114    -1.153403512628    31.972071174400
      Gh(C)           5.122508768124    -0.389908116114     0.327241487372    12.000000000000
      Gh(O)          -2.775618231876    -2.134688116114     1.030229487372    15.994914619570
      Gh(O)          -1.740825231876     2.446574883886     0.041756487372    15.994914619570
      Gh(H)           2.922679768124     1.948097883886    -1.411829512628     1.007825032230
      Gh(H)           0.629730768124     2.715573883886    -0.850994512628     1.007825032230
      Gh(H)          -0.517055231876    -2.497001116114     0.345224487372     1.007825032230
      Gh(H)           1.857598768124    -2.067330116114    -0.142412512628     1.007825032230
      Gh(H)           5.190713768124     0.697759883886     0.428434487372     1.007825032230
      Gh(H)           4.627553768124    -0.812111116114     1.207577487372     1.007825032230
      Gh(H)           6.125749768124    -0.815075116114     0.230066487372     1.007825032230
         O           -2.557234031876    -0.079085216114    -2.172570312628    15.994914619570
         H           -3.289232031876    -0.694643216114    -2.250160312628     1.007825032230
         H           -2.835144031876     0.751524783886    -2.564820312628     1.007825032230

  Running in c1 symmetry.

  Rotational constants: A =      0.02729  B =      0.00754  C =      0.00710 [cm^-1]
  Rotational constants: A =    818.22162  B =    226.14792  C =    212.92997 [MHz]
  Nuclear repulsion =    9.164891593603709

  Charge       = 0
  Multiplicity = 1
  Electrons    = 10
  Nalpha       = 5
  Nbeta        = 5

  ==> Algorithm <==

  SCF Algorithm Type is DF.
  DIIS enabled.
  MOM disabled.
  Fractional occupation disabled.
  Guess Type is SAD.
  Energy threshold   = 1.00e-06
  Density threshold  = 1.00e-06
  Integral threshold = 0.00e+00

  ==> Primary Basis <==

  Basis Set: AUG-CC-PVDZ
    Blend: AUG-CC-PVDZ
    Number of shells: 200
    Number of basis function: 476
    Number of Cartesian functions: 510
    Spherical Harmonics?: true
    Max angular momentum: 2

  ==> DFT Potential <==

   => Composite Functional: WB97X-D <= 

    wB97X-D Hyb-GGA Exchange-Correlation Functional

    J.-D. Chai and M. Head-Gordon, Phys. Chem. Chem. Phys. 10, 6615 (2008)

    Deriv               =              1
    GGA                 =           TRUE
    Meta                =          FALSE

    Exchange Hybrid     =           TRUE
    MP2 Hybrid          =          FALSE

   => Exchange-Correlation Functionals <=

    1.0000   wB97D range-separated functional

   => Exact (HF) Exchange <=

    0.7780            HF,LR [omega = 0.2000]
    0.2220               HF 

   => Molecular Quadrature <=

    Radial Scheme          =       TREUTLER
    Pruning Scheme         =           FLAT
    Nuclear Scheme         =       TREUTLER

    BS radius alpha        =              1
    Pruning alpha          =              1
    Radial Points          =             75
    Spherical Points       =            302
    Total Points           =         588900
    Total Blocks           =           4362
    Max Points             =            256
    Max Functions          =            435

   => WB97X-D: Empirical Dispersion <=

    Chai and Head-Gordon Dispersion Correction
    Chai, J.-D.; Head-Gordon, M. (2010), J. Chem. Phys., 132: 6615-6620

        s6 =       1.000000

   => Loading Basis Set <=

    Name: (AUG-CC-PVDZ AUX)
    Role: JKFIT
    Keyword: DF_BASIS_SCF
    atoms 1             entry N          line   212 file /fsx/users/francis/anaconda3/envs/poltype-dev/share/psi4/basis/aug-cc-pvdz-jkfit.gbs 
    atoms 2-3, 6-12, 14 entry C          line   154 file /fsx/users/francis/anaconda3/envs/poltype-dev/share/psi4/basis/aug-cc-pvdz-jkfit.gbs 
    atoms 4-5           entry F          line   328 file /fsx/users/francis/anaconda3/envs/poltype-dev/share/psi4/basis/aug-cc-pvdz-jkfit.gbs 
    atoms 13            entry S          line   690 file /fsx/users/francis/anaconda3/envs/poltype-dev/share/psi4/basis/aug-cc-pvdz-jkfit.gbs 
    atoms 15-16, 24     entry O          line   270 file /fsx/users/francis/anaconda3/envs/poltype-dev/share/psi4/basis/aug-cc-pvdz-jkfit.gbs 
    atoms 17-23, 25-26  entry H          line    70 file /fsx/users/francis/anaconda3/envs/poltype-dev/share/psi4/basis/aug-cc-pvdz-jkfit.gbs 

  ==> Pre-Iterations <==

   -------------------------------------------------------
    Irrep   Nso     Nmo     Nalpha   Nbeta   Ndocc  Nsocc
   -------------------------------------------------------
     A        476     476       0       0       0       0
   -------------------------------------------------------
    Total     476     476       5       5       5       0
   -------------------------------------------------------

  ==> Integral Setup <==

  ==> DiskDFJK: Density-Fitted J/K Matrices <==

    J tasked:                  Yes
    K tasked:                  Yes
    wK tasked:                 Yes
    Omega:               2.000E-01
    OpenMP threads:              8
    Integrals threads:           8
    Memory [MiB]:             5883
    Algorithm:                Core
    Integral Cache:           NONE
    Schwarz Cutoff:          1E-12
    Fitting Condition:       1E-10

   => Auxiliary Basis Set <=

  Basis Set: (AUG-CC-PVDZ AUX)
    Blend: AUG-CC-PVDZ-JKFIT
    Number of shells: 596
    Number of basis function: 1792
    Number of Cartesian functions: 2081
    Spherical Harmonics?: true
    Max angular momentum: 3

  Cached 100.0% of DFT collocation blocks in 5.430 [GiB].

  Minimum eigenvalue in the overlap matrix is 1.4491619497E-06.
  Using Symmetric Orthogonalization.

  SCF Guess: Superposition of Atomic Densities via on-the-fly atomic UHF.

  ==> Iterations <==

                           Total Energy        Delta E     RMS |[F,P]|

   @DF-RKS iter SAD:   -75.95321979137428   -7.59532e+01   0.00000e+00 
   @DF-RKS iter   1:   -74.39734060118109    1.55588e+00   1.43430e-03 DIIS
   @DF-RKS iter   2:   -75.73574009618206   -1.33840e+00   2.81476e-03 DIIS
   @DF-RKS iter   3:   -76.24251233979626   -5.06772e-01   1.36945e-03 DIIS
   @DF-RKS iter   4:   -76.40715936905137   -1.64647e-01   3.34223e-04 DIIS
   @DF-RKS iter   5:   -76.41986502223151   -1.27057e-02   2.63001e-05 DIIS
   @DF-RKS iter   6:   -76.41995006144825   -8.50392e-05   5.00728e-06 DIIS
   @DF-RKS iter   7:   -76.41995658654494   -6.52510e-06   5.00991e-07 DIIS
   @DF-RKS iter   8:   -76.41995669320831   -1.06663e-07   8.41758e-08 DIIS
  Energy and wave function converged.


  ==> Post-Iterations <==

    Orbital Energies [Eh]
    ---------------------

    Doubly Occupied:                                                      

       1A    -19.278445     2A     -1.119634     3A     -0.631065  
       4A     -0.479103     5A     -0.406603  

    Virtual:                                                              

       6A      0.022300     7A      0.030854     8A      0.038219  
       9A      0.045949    10A      0.051723    11A      0.055096  
      12A      0.060264    13A      0.069940    14A      0.073744  
      15A      0.077099    16A      0.081894    17A      0.088884  
      18A      0.094096    19A      0.098192    20A      0.103191  
      21A      0.109405    22A      0.110075    23A      0.119383  
      24A      0.122301    25A      0.124379    26A      0.134457  
      27A      0.139523    28A      0.142094    29A      0.144799  
      30A      0.148494    31A      0.154190    32A      0.160312  
      33A      0.161209    34A      0.165644    35A      0.170424  
      36A      0.174704    37A      0.177854    38A      0.180527  
      39A      0.183641    40A      0.189868    41A      0.196497  
      42A      0.198049    43A      0.205165    44A      0.209078  
      45A      0.211620    46A      0.214214    47A      0.218999  
      48A      0.224793    49A      0.228778    50A      0.230534  
      51A      0.235335    52A      0.239424    53A      0.240862  
      54A      0.247306    55A      0.251604    56A      0.260377  
      57A      0.263894    58A      0.268193    59A      0.277489  
      60A      0.283844    61A      0.288633    62A      0.290115  
      63A      0.295827    64A      0.298381    65A      0.307509  
      66A      0.311200    67A      0.319568    68A      0.325554  
      69A      0.331595    70A      0.338607    71A      0.339563  
      72A      0.345664    73A      0.353907    74A      0.357390  
      75A      0.359071    76A      0.368403    77A      0.371292  
      78A      0.378734    79A      0.383099    80A      0.385401  
      81A      0.388653    82A      0.390569    83A      0.404397  
      84A      0.408041    85A      0.410810    86A      0.417196  
      87A      0.420065    88A      0.434007    89A      0.435419  
      90A      0.440759    91A      0.443848    92A      0.451764  
      93A      0.457761    94A      0.462369    95A      0.463222  
      96A      0.467344    97A      0.475835    98A      0.481173  
      99A      0.483620   100A      0.485812   101A      0.501018  
     102A      0.502059   103A      0.507602   104A      0.510931  
     105A      0.517896   106A      0.519432   107A      0.528296  
     108A      0.535748   109A      0.540279   110A      0.543165  
     111A      0.546456   112A      0.556077   113A      0.560381  
     114A      0.566332   115A      0.572085   116A      0.577009  
     117A      0.582505   118A      0.586955   119A      0.597995  
     120A      0.600286   121A      0.606727   122A      0.614150  
     123A      0.617282   124A      0.622401   125A      0.631754  
     126A      0.634093   127A      0.642184   128A      0.649657  
     129A      0.654124   130A      0.658312   131A      0.666213  
     132A      0.669328   133A      0.678065   134A      0.679943  
     135A      0.689888   136A      0.693111   137A      0.704164  
     138A      0.706282   139A      0.717608   140A      0.723679  
     141A      0.732261   142A      0.734056   143A      0.744727  
     144A      0.749747   145A      0.755313   146A      0.766604  
     147A      0.771161   148A      0.777584   149A      0.782537  
     150A      0.794588   151A      0.801493   152A      0.804401  
     153A      0.815807   154A      0.816809   155A      0.826047  
     156A      0.830042   157A      0.831020   158A      0.842982  
     159A      0.846662   160A      0.855608   161A      0.858664  
     162A      0.862278   163A      0.866956   164A      0.874845  
     165A      0.882481   166A      0.892593   167A      0.897104  
     168A      0.899900   169A      0.908633   170A      0.914876  
     171A      0.923224   172A      0.926171   173A      0.942671  
     174A      0.951237   175A      0.961308   176A      0.967587  
     177A      0.973831   178A      0.978359   179A      0.986572  
     180A      0.989122   181A      0.997969   182A      1.002144  
     183A      1.008348   184A      1.015453   185A      1.019606  
     186A      1.032259   187A      1.037369   188A      1.052949  
     189A      1.059294   190A      1.060936   191A      1.076183  
     192A      1.082248   193A      1.089879   194A      1.104676  
     195A      1.107641   196A      1.120539   197A      1.132117  
     198A      1.141100   199A      1.155884   200A      1.159942  
     201A      1.167208   202A      1.175883   203A      1.182448  
     204A      1.189020   205A      1.201572   206A      1.211504  
     207A      1.219367   208A      1.226908   209A      1.242517  
     210A      1.244415   211A      1.253776   212A      1.269115  
     213A      1.275514   214A      1.280153   215A      1.314885  
     216A      1.321798   217A      1.324182   218A      1.331996  
     219A      1.336397   220A      1.341124   221A      1.363438  
     222A      1.369867   223A      1.386796   224A      1.393796  
     225A      1.406309   226A      1.417040   227A      1.422495  
     228A      1.440423   229A      1.453943   230A      1.461286  
     231A      1.475820   232A      1.478692   233A      1.491997  
     234A      1.500095   235A      1.510164   236A      1.523327  
     237A      1.545085   238A      1.559367   239A      1.572691  
     240A      1.582106   241A      1.589003   242A      1.612523  
     243A      1.615758   244A      1.638954   245A      1.645774  
     246A      1.655877   247A      1.674215   248A      1.675659  
     249A      1.699091   250A      1.717506   251A      1.729017  
     252A      1.744383   253A      1.764784   254A      1.779424  
     255A      1.795173   256A      1.809774   257A      1.821544  
     258A      1.830585   259A      1.860118   260A      1.878511  
     261A      1.890914   262A      1.904444   263A      1.909692  
     264A      1.930425   265A      1.940982   266A      1.965096  
     267A      1.980638   268A      2.010427   269A      2.036165  
     270A      2.040545   271A      2.059518   272A      2.074207  
     273A      2.086898   274A      2.091222   275A      2.100641  
     276A      2.116963   277A      2.130701   278A      2.161650  
     279A      2.167627   280A      2.177293   281A      2.189415  
     282A      2.198230   283A      2.206954   284A      2.225757  
     285A      2.228041   286A      2.235498   287A      2.254627  
     288A      2.263605   289A      2.267343   290A      2.276469  
     291A      2.277977   292A      2.289444   293A      2.295979  
     294A      2.307375   295A      2.315539   296A      2.323725  
     297A      2.328970   298A      2.338266   299A      2.348848  
     300A      2.354915   301A      2.363884   302A      2.376517  
     303A      2.383704   304A      2.390434   305A      2.397364  
     306A      2.416797   307A      2.424601   308A      2.432703  
     309A      2.447386   310A      2.452968   311A      2.464561  
     312A      2.516551   313A      2.518540   314A      2.522126  
     315A      2.544579   316A      2.572767   317A      2.578003  
     318A      2.594181   319A      2.609663   320A      2.612548  
     321A      2.625039   322A      2.636686   323A      2.645717  
     324A      2.660445   325A      2.671122   326A      2.682496  
     327A      2.704747   328A      2.723001   329A      2.747904  
     330A      2.764287   331A      2.767344   332A      2.808017  
     333A      2.817586   334A      2.826548   335A      2.830655  
     336A      2.851199   337A      2.860918   338A      2.875201  
     339A      2.888053   340A      2.896916   341A      2.906580  
     342A      2.917517   343A      2.943097   344A      2.967151  
     345A      2.994813   346A      3.001550   347A      3.012629  
     348A      3.030964   349A      3.045087   350A      3.065241  
     351A      3.087781   352A      3.103310   353A      3.133769  
     354A      3.149011   355A      3.173004   356A      3.211409  
     357A      3.261968   358A      3.274164   359A      3.276952  
     360A      3.292024   361A      3.294262   362A      3.313586  
     363A      3.337217   364A      3.359948   365A      3.376175  
     366A      3.444467   367A      3.460899   368A      3.467087  
     369A      3.473293   370A      3.497973   371A      3.502100  
     372A      3.524385   373A      3.550880   374A      3.581741  
     375A      3.603390   376A      3.650853   377A      3.679931  
     378A      3.692260   379A      3.720356   380A      3.731731  
     381A      3.781678   382A      3.817593   383A      3.828777  
     384A      3.868039   385A      3.907781   386A      3.920122  
     387A      3.994491   388A      4.006314   389A      4.030450  
     390A      4.070497   391A      4.100259   392A      4.147536  
     393A      4.209306   394A      4.246967   395A      4.333564  
     396A      4.361147   397A      4.385303   398A      4.408257  
     399A      4.482013   400A      4.532855   401A      4.541645  
     402A      4.598935   403A      4.629413   404A      4.693540  
     405A      4.749098   406A      4.785848   407A      4.834972  
     408A      4.902851   409A      4.958249   410A      5.002487  
     411A      5.035539   412A      5.056588   413A      5.068463  
     414A      5.072437   415A      5.074602   416A      5.092609  
     417A      5.098284   418A      5.110401   419A      5.147542  
     420A      5.219248   421A      5.278108   422A      5.295940  
     423A      5.320219   424A      5.379582   425A      5.395510  
     426A      5.454767   427A      5.463923   428A      5.534738  
     429A      5.631550   430A      5.845851   431A      5.983151  
     432A      6.042394   433A      6.059637   434A      6.149614  
     435A      6.169038   436A      6.236282   437A      6.461963  
     438A      6.508631   439A      6.818418   440A      6.843681  
     441A      6.872595   442A      6.883210   443A      6.897542  
     444A      6.924283   445A      6.947502   446A      6.966705  
     447A      6.972024   448A      6.991256   449A      7.049997  
     450A      7.053951   451A      7.129327   452A      7.846427  
     453A      7.943084   454A      7.980378   455A      8.142061  
     456A      8.174250   457A      8.234687   458A     18.011973  
     459A     18.423429   460A     18.568083   461A     18.616858  
     462A     18.787344   463A     18.902409   464A     19.177961  
     465A     19.381433   466A     19.613630   467A     20.623342  
     468A     20.764035   469A     20.887309   470A     21.434428  
     471A     25.495972   472A     33.552108   473A     33.561698  
     474A     42.999965   475A     43.022622   476A    138.007258  

    Final Occupation by Irrep:
              A 
    DOCC [     5 ]

  @DF-RKS Final Energy:   -76.41995669320831

   => Energetics <=

    Nuclear Repulsion Energy =              9.1648915936037092
    One-Electron Energy =                -122.9457493833643440
    Two-Electron Energy =                  43.8337020275905758
    DFT Exchange-Correlation Energy =      -6.4727705089325926
    Empirical Dispersion Energy =          -0.0000304221056586
    VV10 Nonlocal Energy =                  0.0000000000000000
    Total Energy =                        -76.4199566932083059

Computation Completed


Properties will be evaluated at   0.000000,  -0.000000,   0.000000 [a0]

Properties computed using the SCF density matrix

  Nuclear Dipole Moment: [e a0]
     X:   -50.2332      Y:    -1.0881      Z:   -41.9435

  Electronic Dipole Moment: [e a0]
     X:    49.5896      Y:     1.2253      Z:    41.6447

  Dipole Moment: [e a0]
     X:    -0.6436      Y:     0.1372      Z:    -0.2988     Total:     0.7227

  Dipole Moment: [D]
     X:    -1.6359      Y:     0.3488      Z:    -0.7594     Total:     1.8370


*** tstop() called on cpu-spot-dy-c5n2xlarge-1 at Tue Jun 22 17:34:00 2021
Module time:
	user time   =     697.46 seconds =      11.62 minutes
	system time =       7.03 seconds =       0.12 minutes
	total time  =         95 seconds =       1.58 minutes
Total time:
	user time   =     705.61 seconds =      11.76 minutes
	system time =       7.32 seconds =       0.12 minutes
	total time  =         96 seconds =       1.60 minutes

       N-Body: Complex Energy (fragments = (2,), basis = (1, 2):   -76.41995669320831)

       N-Body: Computing complex (3/4) with fragments (1,) in the basis of fragments (1, 2).


*** tstart() called on cpu-spot-dy-c5n2xlarge-1
*** at Tue Jun 22 17:34:00 2021

   => Loading Basis Set <=

    Name: AUG-CC-PVDZ
    Role: ORBITAL
    Keyword: BASIS
    atoms 1             entry N          line   214 file /fsx/users/francis/anaconda3/envs/poltype-dev/share/psi4/basis/aug-cc-pvdz.gbs 
    atoms 2-3, 6-12, 14 entry C          line   178 file /fsx/users/francis/anaconda3/envs/poltype-dev/share/psi4/basis/aug-cc-pvdz.gbs 
    atoms 4-5           entry F          line   286 file /fsx/users/francis/anaconda3/envs/poltype-dev/share/psi4/basis/aug-cc-pvdz.gbs 
    atoms 13            entry S          line   698 file /fsx/users/francis/anaconda3/envs/poltype-dev/share/psi4/basis/aug-cc-pvdz.gbs 
    atoms 15-16, 24     entry O          line   250 file /fsx/users/francis/anaconda3/envs/poltype-dev/share/psi4/basis/aug-cc-pvdz.gbs 
    atoms 17-23, 25-26  entry H          line    36 file /fsx/users/francis/anaconda3/envs/poltype-dev/share/psi4/basis/aug-cc-pvdz.gbs 


         ---------------------------------------------------------
                                   SCF
               by Justin Turney, Rob Parrish, Andy Simmonett
                          and Daniel G. A. Smith
                              RKS Reference
                        8 Threads,  15258 MiB Core
         ---------------------------------------------------------

  ==> Geometry <==

    Molecular point group: c1
    Full point group: C1

    Geometry (in Angstrom), charge = 0, multiplicity = 1:

       Center              X                  Y                   Z               Mass       
    ------------   -----------------  -----------------  -----------------  -----------------
         N           -0.696476231876    -1.505319116114     0.418397487372    14.003074004430
         C           -1.979358231876    -1.229445116114     0.817721487372    12.000000000000
         C           -2.292459231876     0.285508883886     1.038842487372    12.000000000000
         F           -3.619143231876     0.520455883886     0.727795487372    18.998403162730
         F           -2.137209231876     0.545916883886     2.381563487372    18.998403162730
         C           -1.383536231876     1.286554883886     0.243192487372    12.000000000000
         C           -0.027616231876     0.802095883886    -0.111883512628    12.000000000000
         C            0.920479768124     1.678415883886    -0.682845512628    12.000000000000
         C            2.207453768124     1.231391883886    -1.009175512628    12.000000000000
         C            2.564556768124    -0.126044116114    -0.800689512628    12.000000000000
         C            1.594537768124    -1.020432116114    -0.298954512628    12.000000000000
         C            0.301459768124    -0.576748116114     0.026288487372    12.000000000000
         S            4.162793768124    -0.795111116114    -1.153403512628    31.972071174400
         C            5.122508768124    -0.389908116114     0.327241487372    12.000000000000
         O           -2.775618231876    -2.134688116114     1.030229487372    15.994914619570
         O           -1.740825231876     2.446574883886     0.041756487372    15.994914619570
         H            2.922679768124     1.948097883886    -1.411829512628     1.007825032230
         H            0.629730768124     2.715573883886    -0.850994512628     1.007825032230
         H           -0.517055231876    -2.497001116114     0.345224487372     1.007825032230
         H            1.857598768124    -2.067330116114    -0.142412512628     1.007825032230
         H            5.190713768124     0.697759883886     0.428434487372     1.007825032230
         H            4.627553768124    -0.812111116114     1.207577487372     1.007825032230
         H            6.125749768124    -0.815075116114     0.230066487372     1.007825032230
      Gh(O)          -2.557234031876    -0.079085216114    -2.172570312628    15.994914619570
      Gh(H)          -3.289232031876    -0.694643216114    -2.250160312628     1.007825032230
      Gh(H)          -2.835144031876     0.751524783886    -2.564820312628     1.007825032230

  Running in c1 symmetry.

  Rotational constants: A =      0.02729  B =      0.00754  C =      0.00710 [cm^-1]
  Rotational constants: A =    818.22162  B =    226.14792  C =    212.92997 [MHz]
  Nuclear repulsion = 1179.275772546458029

  Charge       = 0
  Multiplicity = 1
  Electrons    = 124
  Nalpha       = 62
  Nbeta        = 62

  ==> Algorithm <==

  SCF Algorithm Type is DF.
  DIIS enabled.
  MOM disabled.
  Fractional occupation disabled.
  Guess Type is SAD.
  Energy threshold   = 1.00e-06
  Density threshold  = 1.00e-06
  Integral threshold = 0.00e+00

  ==> Primary Basis <==

  Basis Set: AUG-CC-PVDZ
    Blend: AUG-CC-PVDZ
    Number of shells: 200
    Number of basis function: 476
    Number of Cartesian functions: 510
    Spherical Harmonics?: true
    Max angular momentum: 2

  ==> DFT Potential <==

   => Composite Functional: WB97X-D <= 

    wB97X-D Hyb-GGA Exchange-Correlation Functional

    J.-D. Chai and M. Head-Gordon, Phys. Chem. Chem. Phys. 10, 6615 (2008)

    Deriv               =              1
    GGA                 =           TRUE
    Meta                =          FALSE

    Exchange Hybrid     =           TRUE
    MP2 Hybrid          =          FALSE

   => Exchange-Correlation Functionals <=

    1.0000   wB97D range-separated functional

   => Exact (HF) Exchange <=

    0.7780            HF,LR [omega = 0.2000]
    0.2220               HF 

   => Molecular Quadrature <=

    Radial Scheme          =       TREUTLER
    Pruning Scheme         =           FLAT
    Nuclear Scheme         =       TREUTLER

    BS radius alpha        =              1
    Pruning alpha          =              1
    Radial Points          =             75
    Spherical Points       =            302
    Total Points           =         588900
    Total Blocks           =           4362
    Max Points             =            256
    Max Functions          =            435

   => WB97X-D: Empirical Dispersion <=

    Chai and Head-Gordon Dispersion Correction
    Chai, J.-D.; Head-Gordon, M. (2010), J. Chem. Phys., 132: 6615-6620

        s6 =       1.000000

   => Loading Basis Set <=

    Name: (AUG-CC-PVDZ AUX)
    Role: JKFIT
    Keyword: DF_BASIS_SCF
    atoms 1             entry N          line   212 file /fsx/users/francis/anaconda3/envs/poltype-dev/share/psi4/basis/aug-cc-pvdz-jkfit.gbs 
    atoms 2-3, 6-12, 14 entry C          line   154 file /fsx/users/francis/anaconda3/envs/poltype-dev/share/psi4/basis/aug-cc-pvdz-jkfit.gbs 
    atoms 4-5           entry F          line   328 file /fsx/users/francis/anaconda3/envs/poltype-dev/share/psi4/basis/aug-cc-pvdz-jkfit.gbs 
    atoms 13            entry S          line   690 file /fsx/users/francis/anaconda3/envs/poltype-dev/share/psi4/basis/aug-cc-pvdz-jkfit.gbs 
    atoms 15-16, 24     entry O          line   270 file /fsx/users/francis/anaconda3/envs/poltype-dev/share/psi4/basis/aug-cc-pvdz-jkfit.gbs 
    atoms 17-23, 25-26  entry H          line    70 file /fsx/users/francis/anaconda3/envs/poltype-dev/share/psi4/basis/aug-cc-pvdz-jkfit.gbs 

  ==> Pre-Iterations <==

   -------------------------------------------------------
    Irrep   Nso     Nmo     Nalpha   Nbeta   Ndocc  Nsocc
   -------------------------------------------------------
     A        476     476       0       0       0       0
   -------------------------------------------------------
    Total     476     476      62      62      62       0
   -------------------------------------------------------

  ==> Integral Setup <==

  ==> DiskDFJK: Density-Fitted J/K Matrices <==

    J tasked:                  Yes
    K tasked:                  Yes
    wK tasked:                 Yes
    Omega:               2.000E-01
    OpenMP threads:              8
    Integrals threads:           8
    Memory [MiB]:             5883
    Algorithm:                Core
    Integral Cache:           NONE
    Schwarz Cutoff:          1E-12
    Fitting Condition:       1E-10

   => Auxiliary Basis Set <=

  Basis Set: (AUG-CC-PVDZ AUX)
    Blend: AUG-CC-PVDZ-JKFIT
    Number of shells: 596
    Number of basis function: 1792
    Number of Cartesian functions: 2081
    Spherical Harmonics?: true
    Max angular momentum: 3

  Cached 100.0% of DFT collocation blocks in 5.430 [GiB].

  Minimum eigenvalue in the overlap matrix is 1.4491619497E-06.
  Using Symmetric Orthogonalization.

  SCF Guess: Superposition of Atomic Densities via on-the-fly atomic UHF.

  ==> Iterations <==

                           Total Energy        Delta E     RMS |[F,P]|

   @DF-RKS iter SAD: -1187.38982013152554   -1.18739e+03   0.00000e+00 
   @DF-RKS iter   1: -1187.69180245143593   -3.01982e-01   2.21031e-03 DIIS
   @DF-RKS iter   2: -1187.69903315725151   -7.23071e-03   2.40446e-03 DIIS
   @DF-RKS iter   3: -1188.17423252801791   -4.75199e-01   5.68895e-04 DIIS
   @DF-RKS iter   4: -1188.20272076296033   -2.84882e-02   1.48220e-04 DIIS
   @DF-RKS iter   5: -1188.20490708659190   -2.18632e-03   4.24645e-05 DIIS
   @DF-RKS iter   6: -1188.20512637943170   -2.19293e-04   1.44809e-05 DIIS
   @DF-RKS iter   7: -1188.20515156109514   -2.51817e-05   4.41041e-06 DIIS
   @DF-RKS iter   8: -1188.20515595919892   -4.39810e-06   1.61886e-06 DIIS
   @DF-RKS iter   9: -1188.20515697368887   -1.01449e-06   1.06005e-06 DIIS
   @DF-RKS iter  10: -1188.20515720437447   -2.30686e-07   3.59738e-07 DIIS
  Energy and wave function converged.


  ==> Post-Iterations <==

    Orbital Energies [Eh]
    ---------------------

    Doubly Occupied:                                                      

       1A    -89.069701     2A    -24.880655     3A    -24.867496  
       4A    -19.304952     5A    -19.288517     6A    -14.536472  
       7A    -10.509429     8A    -10.455570     9A    -10.436853  
      10A    -10.407738    11A    -10.378821    12A    -10.356891  
      13A    -10.352385    14A    -10.350028    15A    -10.345603  
      16A    -10.343978    17A     -8.087196    18A     -6.037067  
      19A     -6.032949    20A     -6.025961    21A     -1.385563  
      22A     -1.326651    23A     -1.190206    24A     -1.179776  
      25A     -1.093689    26A     -1.000542    27A     -0.938561  
      28A     -0.904141    29A     -0.888676    30A     -0.866797  
      31A     -0.792461    32A     -0.765584    33A     -0.752173  
      34A     -0.739963    35A     -0.696090    36A     -0.677409  
      37A     -0.668506    38A     -0.643294    39A     -0.629012  
      40A     -0.591292    41A     -0.580127    42A     -0.569098  
      43A     -0.562675    44A     -0.557732    45A     -0.555418  
      46A     -0.547895    47A     -0.539460    48A     -0.533424  
      49A     -0.527452    50A     -0.516217    51A     -0.512579  
      52A     -0.500694    53A     -0.494205    54A     -0.480687  
      55A     -0.474024    56A     -0.441133    57A     -0.420498  
      58A     -0.398163    59A     -0.372111    60A     -0.367825  
      61A     -0.340111    62A     -0.332777  

    Virtual:                                                              

      63A     -0.057493    64A      0.006645    65A      0.023888  
      66A      0.032226    67A      0.035982    68A      0.039437  
      69A      0.049101    70A      0.050166    71A      0.057945  
      72A      0.060229    73A      0.066020    74A      0.075732  
      75A      0.076078    76A      0.084026    77A      0.085853  
      78A      0.091560    79A      0.099936    80A      0.106625  
      81A      0.107548    82A      0.112074    83A      0.114619  
      84A      0.117911    85A      0.123939    86A      0.126105  
      87A      0.131756    88A      0.134862    89A      0.135618  
      90A      0.140970    91A      0.147185    92A      0.150426  
      93A      0.152430    94A      0.156977    95A      0.165107  
      96A      0.165900    97A      0.168162    98A      0.169165  
      99A      0.175819   100A      0.176175   101A      0.178413  
     102A      0.182553   103A      0.187940   104A      0.192867  
     105A      0.196761   106A      0.199818   107A      0.206371  
     108A      0.207076   109A      0.215271   110A      0.217443  
     111A      0.222237   112A      0.227516   113A      0.230914  
     114A      0.233384   115A      0.236015   116A      0.239222  
     117A      0.242317   118A      0.249725   119A      0.254829  
     120A      0.256391   121A      0.260164   122A      0.263306  
     123A      0.269268   124A      0.274057   125A      0.275288  
     126A      0.276297   127A      0.281486   128A      0.285698  
     129A      0.287852   130A      0.288478   131A      0.295406  
     132A      0.299177   133A      0.303520   134A      0.309459  
     135A      0.313291   136A      0.318898   137A      0.321132  
     138A      0.325792   139A      0.331710   140A      0.336887  
     141A      0.343120   142A      0.343235   143A      0.348949  
     144A      0.354012   145A      0.355669   146A      0.361129  
     147A      0.367078   148A      0.368450   149A      0.370604  
     150A      0.378839   151A      0.380573   152A      0.382004  
     153A      0.386323   154A      0.389286   155A      0.398166  
     156A      0.399379   157A      0.409470   158A      0.411965  
     159A      0.415666   160A      0.420063   161A      0.428522  
     162A      0.428928   163A      0.432055   164A      0.437876  
     165A      0.441834   166A      0.444871   167A      0.455515  
     168A      0.461425   169A      0.473306   170A      0.477493  
     171A      0.478537   172A      0.487158   173A      0.488976  
     174A      0.494427   175A      0.497830   176A      0.501209  
     177A      0.504099   178A      0.513399   179A      0.519267  
     180A      0.522358   181A      0.527045   182A      0.531546  
     183A      0.536001   184A      0.537047   185A      0.541162  
     186A      0.549890   187A      0.553345   188A      0.558434  
     189A      0.567872   190A      0.569086   191A      0.573066  
     192A      0.579745   193A      0.584762   194A      0.587700  
     195A      0.593844   196A      0.604331   197A      0.607109  
     198A      0.609381   199A      0.613923   200A      0.622092  
     201A      0.627233   202A      0.630215   203A      0.633987  
     204A      0.638684   205A      0.642145   206A      0.649773  
     207A      0.652689   208A      0.656949   209A      0.663708  
     210A      0.664266   211A      0.671455   212A      0.677234  
     213A      0.677612   214A      0.684881   215A      0.688170  
     216A      0.697346   217A      0.701140   218A      0.703290  
     219A      0.707112   220A      0.716115   221A      0.726199  
     222A      0.729008   223A      0.739011   224A      0.743575  
     225A      0.754790   226A      0.758550   227A      0.762365  
     228A      0.770927   229A      0.772833   230A      0.789395  
     231A      0.793471   232A      0.795153   233A      0.799725  
     234A      0.809129   235A      0.814356   236A      0.818708  
     237A      0.826500   238A      0.834012   239A      0.839029  
     240A      0.841785   241A      0.849795   242A      0.853605  
     243A      0.856584   244A      0.861527   245A      0.874390  
     246A      0.878137   247A      0.897697   248A      0.900061  
     249A      0.906741   250A      0.919421   251A      0.926889  
     252A      0.929024   253A      0.940003   254A      0.948489  
     255A      0.953677   256A      0.962348   257A      0.981056  
     258A      0.993088   259A      0.998671   260A      1.006116  
     261A      1.011994   262A      1.017634   263A      1.028518  
     264A      1.040940   265A      1.057479   266A      1.061144  
     267A      1.075120   268A      1.075782   269A      1.086716  
     270A      1.097302   271A      1.101619   272A      1.111568  
     273A      1.119381   274A      1.135192   275A      1.138409  
     276A      1.148877   277A      1.154439   278A      1.160274  
     279A      1.175304   280A      1.180984   281A      1.189306  
     282A      1.201808   283A      1.210716   284A      1.219317  
     285A      1.225692   286A      1.239095   287A      1.246645  
     288A      1.262570   289A      1.272938   290A      1.281412  
     291A      1.284381   292A      1.297843   293A      1.300772  
     294A      1.309209   295A      1.316993   296A      1.327746  
     297A      1.337559   298A      1.342834   299A      1.352426  
     300A      1.359221   301A      1.370385   302A      1.377634  
     303A      1.379667   304A      1.387247   305A      1.400270  
     306A      1.407383   307A      1.412200   308A      1.424947  
     309A      1.433760   310A      1.442685   311A      1.457431  
     312A      1.467601   313A      1.475952   314A      1.487887  
     315A      1.494997   316A      1.505946   317A      1.509693  
     318A      1.521501   319A      1.530815   320A      1.549041  
     321A      1.550442   322A      1.553546   323A      1.560698  
     324A      1.562919   325A      1.572478   326A      1.588329  
     327A      1.600120   328A      1.602651   329A      1.611774  
     330A      1.613270   331A      1.617736   332A      1.632860  
     333A      1.638572   334A      1.650490   335A      1.656562  
     336A      1.669979   337A      1.670527   338A      1.682989  
     339A      1.692590   340A      1.704378   341A      1.715921  
     342A      1.720817   343A      1.727238   344A      1.739950  
     345A      1.751841   346A      1.766640   347A      1.769535  
     348A      1.778316   349A      1.787793   350A      1.795432  
     351A      1.799121   352A      1.823821   353A      1.828096  
     354A      1.839276   355A      1.850658   356A      1.864923  
     357A      1.872994   358A      1.874800   359A      1.891931  
     360A      1.900583   361A      1.903241   362A      1.910554  
     363A      1.926885   364A      1.942959   365A      1.953075  
     366A      1.958361   367A      1.962077   368A      1.974755  
     369A      1.988515   370A      1.997286   371A      2.006021  
     372A      2.018049   373A      2.025516   374A      2.037063  
     375A      2.043715   376A      2.057295   377A      2.068706  
     378A      2.075316   379A      2.091825   380A      2.098284  
     381A      2.106523   382A      2.124101   383A      2.132805  
     384A      2.150456   385A      2.163599   386A      2.172011  
     387A      2.181864   388A      2.202292   389A      2.207069  
     390A      2.218620   391A      2.231643   392A      2.233980  
     393A      2.250631   394A      2.289505   395A      2.292047  
     396A      2.318909   397A      2.326855   398A      2.336814  
     399A      2.339764   400A      2.347025   401A      2.356328  
     402A      2.364882   403A      2.375407   404A      2.396781  
     405A      2.422404   406A      2.438079   407A      2.447200  
     408A      2.479584   409A      2.494842   410A      2.515807  
     411A      2.540292   412A      2.577863   413A      2.594863  
     414A      2.597630   415A      2.607975   416A      2.623645  
     417A      2.625610   418A      2.654974   419A      2.668620  
     420A      2.689540   421A      2.695435   422A      2.701814  
     423A      2.711630   424A      2.739853   425A      2.750110  
     426A      2.795866   427A      2.847596   428A      2.861178  
     429A      2.958423   430A      2.969623   431A      3.021491  
     432A      3.034810   433A      3.109508   434A      3.165714  
     435A      3.197559   436A      3.376450   437A      3.388599  
     438A      3.395027   439A      3.449672   440A      3.467980  
     441A      3.495933   442A      3.504349   443A      3.514435  
     444A      3.537317   445A      3.560151   446A      3.571419  
     447A      3.592751   448A      3.627643   449A      3.708101  
     450A      3.730357   451A      3.746517   452A      3.797416  
     453A      3.895580   454A      3.957378   455A      4.085815  
     456A      4.182497   457A      4.481187   458A      4.635760  
     459A      4.667516   460A      4.714558   461A      4.725855  
     462A      4.747204   463A      4.759022   464A      4.786161  
     465A      4.817687   466A      4.875577   467A      4.903939  
     468A      5.031136   469A      5.044032   470A      5.085130  
     471A      5.225195   472A      5.452983   473A      5.795545  
     474A      6.622289   475A      7.085479   476A     33.572965  

    Final Occupation by Irrep:
              A 
    DOCC [    62 ]

  @DF-RKS Final Energy: -1188.20515720437447

   => Energetics <=

    Nuclear Repulsion Energy =           1179.2757725464580290
    One-Electron Energy =               -3972.9793554270736422
    Two-Electron Energy =                1695.0486907244053327
    DFT Exchange-Correlation Energy =     -89.5367684745493762
    Empirical Dispersion Energy =          -0.0134965736146370
    VV10 Nonlocal Energy =                  0.0000000000000000
    Total Energy =                      -1188.2051572043742453

Computation Completed


Properties will be evaluated at   0.000000,  -0.000000,   0.000000 [a0]

Properties computed using the SCF density matrix

  Nuclear Dipole Moment: [e a0]
     X:    69.5339      Y:    -0.6582      Z:    34.2776

  Electronic Dipole Moment: [e a0]
     X:   -66.9939      Y:     0.2867      Z:   -34.4909

  Dipole Moment: [e a0]
     X:     2.5401      Y:    -0.3715      Z:    -0.2133     Total:     2.5759

  Dipole Moment: [D]
     X:     6.4562      Y:    -0.9442      Z:    -0.5421     Total:     6.5473


*** tstop() called on cpu-spot-dy-c5n2xlarge-1 at Tue Jun 22 17:36:03 2021
Module time:
	user time   =     910.86 seconds =      15.18 minutes
	system time =       8.91 seconds =       0.15 minutes
	total time  =        123 seconds =       2.05 minutes
Total time:
	user time   =    1616.51 seconds =      26.94 minutes
	system time =      16.23 seconds =       0.27 minutes
	total time  =        219 seconds =       3.65 minutes

       N-Body: Complex Energy (fragments = (1,), basis = (1, 2): -1188.20515720437447)

       N-Body: Computing complex (4/4) with fragments (1,) in the basis of fragments (1,).


*** tstart() called on cpu-spot-dy-c5n2xlarge-1
*** at Tue Jun 22 17:36:03 2021

   => Loading Basis Set <=

    Name: AUG-CC-PVDZ
    Role: ORBITAL
    Keyword: BASIS
    atoms 1             entry N          line   214 file /fsx/users/francis/anaconda3/envs/poltype-dev/share/psi4/basis/aug-cc-pvdz.gbs 
    atoms 2-3, 6-12, 14 entry C          line   178 file /fsx/users/francis/anaconda3/envs/poltype-dev/share/psi4/basis/aug-cc-pvdz.gbs 
    atoms 4-5           entry F          line   286 file /fsx/users/francis/anaconda3/envs/poltype-dev/share/psi4/basis/aug-cc-pvdz.gbs 
    atoms 13            entry S          line   698 file /fsx/users/francis/anaconda3/envs/poltype-dev/share/psi4/basis/aug-cc-pvdz.gbs 
    atoms 15-16         entry O          line   250 file /fsx/users/francis/anaconda3/envs/poltype-dev/share/psi4/basis/aug-cc-pvdz.gbs 
    atoms 17-23         entry H          line    36 file /fsx/users/francis/anaconda3/envs/poltype-dev/share/psi4/basis/aug-cc-pvdz.gbs 


         ---------------------------------------------------------
                                   SCF
               by Justin Turney, Rob Parrish, Andy Simmonett
                          and Daniel G. A. Smith
                              RKS Reference
                        8 Threads,  15258 MiB Core
         ---------------------------------------------------------

  ==> Geometry <==

    Molecular point group: c1
    Full point group: C1

    Geometry (in Angstrom), charge = 0, multiplicity = 1:

       Center              X                  Y                   Z               Mass       
    ------------   -----------------  -----------------  -----------------  -----------------
         N           -0.696476231876    -1.505319116114     0.418397487372    14.003074004430
         C           -1.979358231876    -1.229445116114     0.817721487372    12.000000000000
         C           -2.292459231876     0.285508883886     1.038842487372    12.000000000000
         F           -3.619143231876     0.520455883886     0.727795487372    18.998403162730
         F           -2.137209231876     0.545916883886     2.381563487372    18.998403162730
         C           -1.383536231876     1.286554883886     0.243192487372    12.000000000000
         C           -0.027616231876     0.802095883886    -0.111883512628    12.000000000000
         C            0.920479768124     1.678415883886    -0.682845512628    12.000000000000
         C            2.207453768124     1.231391883886    -1.009175512628    12.000000000000
         C            2.564556768124    -0.126044116114    -0.800689512628    12.000000000000
         C            1.594537768124    -1.020432116114    -0.298954512628    12.000000000000
         C            0.301459768124    -0.576748116114     0.026288487372    12.000000000000
         S            4.162793768124    -0.795111116114    -1.153403512628    31.972071174400
         C            5.122508768124    -0.389908116114     0.327241487372    12.000000000000
         O           -2.775618231876    -2.134688116114     1.030229487372    15.994914619570
         O           -1.740825231876     2.446574883886     0.041756487372    15.994914619570
         H            2.922679768124     1.948097883886    -1.411829512628     1.007825032230
         H            0.629730768124     2.715573883886    -0.850994512628     1.007825032230
         H           -0.517055231876    -2.497001116114     0.345224487372     1.007825032230
         H            1.857598768124    -2.067330116114    -0.142412512628     1.007825032230
         H            5.190713768124     0.697759883886     0.428434487372     1.007825032230
         H            4.627553768124    -0.812111116114     1.207577487372     1.007825032230
         H            6.125749768124    -0.815075116114     0.230066487372     1.007825032230

  Running in c1 symmetry.

  Rotational constants: A =      0.03505  B =      0.00831  C =      0.00735 [cm^-1]
  Rotational constants: A =   1050.80402  B =    249.27655  C =    220.34971 [MHz]
  Nuclear repulsion = 1179.275772546458029

  Charge       = 0
  Multiplicity = 1
  Electrons    = 124
  Nalpha       = 62
  Nbeta        = 62

  ==> Algorithm <==

  SCF Algorithm Type is DF.
  DIIS enabled.
  MOM disabled.
  Fractional occupation disabled.
  Guess Type is SAD.
  Energy threshold   = 1.00e-06
  Density threshold  = 1.00e-06
  Integral threshold = 0.00e+00

  ==> Primary Basis <==

  Basis Set: AUG-CC-PVDZ
    Blend: AUG-CC-PVDZ
    Number of shells: 181
    Number of basis function: 435
    Number of Cartesian functions: 467
    Spherical Harmonics?: true
    Max angular momentum: 2

  ==> DFT Potential <==

   => Composite Functional: WB97X-D <= 

    wB97X-D Hyb-GGA Exchange-Correlation Functional

    J.-D. Chai and M. Head-Gordon, Phys. Chem. Chem. Phys. 10, 6615 (2008)

    Deriv               =              1
    GGA                 =           TRUE
    Meta                =          FALSE

    Exchange Hybrid     =           TRUE
    MP2 Hybrid          =          FALSE

   => Exchange-Correlation Functionals <=

    1.0000   wB97D range-separated functional

   => Exact (HF) Exchange <=

    0.7780            HF,LR [omega = 0.2000]
    0.2220               HF 

   => Molecular Quadrature <=

    Radial Scheme          =       TREUTLER
    Pruning Scheme         =           FLAT
    Nuclear Scheme         =       TREUTLER

    BS radius alpha        =              1
    Pruning alpha          =              1
    Radial Points          =             75
    Spherical Points       =            302
    Total Points           =         520950
    Total Blocks           =           3881
    Max Points             =            256
    Max Functions          =            395

   => WB97X-D: Empirical Dispersion <=

    Chai and Head-Gordon Dispersion Correction
    Chai, J.-D.; Head-Gordon, M. (2010), J. Chem. Phys., 132: 6615-6620

        s6 =       1.000000

   => Loading Basis Set <=

    Name: (AUG-CC-PVDZ AUX)
    Role: JKFIT
    Keyword: DF_BASIS_SCF
    atoms 1             entry N          line   212 file /fsx/users/francis/anaconda3/envs/poltype-dev/share/psi4/basis/aug-cc-pvdz-jkfit.gbs 
    atoms 2-3, 6-12, 14 entry C          line   154 file /fsx/users/francis/anaconda3/envs/poltype-dev/share/psi4/basis/aug-cc-pvdz-jkfit.gbs 
    atoms 4-5           entry F          line   328 file /fsx/users/francis/anaconda3/envs/poltype-dev/share/psi4/basis/aug-cc-pvdz-jkfit.gbs 
    atoms 13            entry S          line   690 file /fsx/users/francis/anaconda3/envs/poltype-dev/share/psi4/basis/aug-cc-pvdz-jkfit.gbs 
    atoms 15-16         entry O          line   270 file /fsx/users/francis/anaconda3/envs/poltype-dev/share/psi4/basis/aug-cc-pvdz-jkfit.gbs 
    atoms 17-23         entry H          line    70 file /fsx/users/francis/anaconda3/envs/poltype-dev/share/psi4/basis/aug-cc-pvdz-jkfit.gbs 

  ==> Pre-Iterations <==

   -------------------------------------------------------
    Irrep   Nso     Nmo     Nalpha   Nbeta   Ndocc  Nsocc
   -------------------------------------------------------
     A        435     435       0       0       0       0
   -------------------------------------------------------
    Total     435     435      62      62      62       0
   -------------------------------------------------------

  ==> Integral Setup <==

  ==> DiskDFJK: Density-Fitted J/K Matrices <==

    J tasked:                  Yes
    K tasked:                  Yes
    wK tasked:                 Yes
    Omega:               2.000E-01
    OpenMP threads:              8
    Integrals threads:           8
    Memory [MiB]:             6784
    Algorithm:                Core
    Integral Cache:           NONE
    Schwarz Cutoff:          1E-12
    Fitting Condition:       1E-10

   => Auxiliary Basis Set <=

  Basis Set: (AUG-CC-PVDZ AUX)
    Blend: AUG-CC-PVDZ-JKFIT
    Number of shells: 544
    Number of basis function: 1642
    Number of Cartesian functions: 1910
    Spherical Harmonics?: true
    Max angular momentum: 3

  Cached 100.0% of DFT collocation blocks in 4.551 [GiB].

  Minimum eigenvalue in the overlap matrix is 1.5480650925E-06.
  Using Symmetric Orthogonalization.

  SCF Guess: Superposition of Atomic Densities via on-the-fly atomic UHF.

  ==> Iterations <==

                           Total Energy        Delta E     RMS |[F,P]|

   @DF-RKS iter SAD: -1187.38997035387411   -1.18739e+03   0.00000e+00 
   @DF-RKS iter   1: -1187.69144367649756   -3.01473e-01   2.41780e-03 DIIS
   @DF-RKS iter   2: -1187.69865190804467   -7.20823e-03   2.63069e-03 DIIS
   @DF-RKS iter   3: -1188.17393280404167   -4.75281e-01   6.22166e-04 DIIS
   @DF-RKS iter   4: -1188.20239953209602   -2.84667e-02   1.62012e-04 DIIS
   @DF-RKS iter   5: -1188.20458199086215   -2.18246e-03   4.64543e-05 DIIS
   @DF-RKS iter   6: -1188.20480122495815   -2.19234e-04   1.58368e-05 DIIS
   @DF-RKS iter   7: -1188.20482638027624   -2.51553e-05   4.82214e-06 DIIS
   @DF-RKS iter   8: -1188.20483077430777   -4.39403e-06   1.77025e-06 DIIS
   @DF-RKS iter   9: -1188.20483178818426   -1.01388e-06   1.15904e-06 DIIS
   @DF-RKS iter  10: -1188.20483201855882   -2.30375e-07   3.93348e-07 DIIS
  Energy and wave function converged.


  ==> Post-Iterations <==

    Orbital Energies [Eh]
    ---------------------

    Doubly Occupied:                                                      

       1A    -89.069695     2A    -24.880627     3A    -24.867486  
       4A    -19.304898     5A    -19.288491     6A    -14.536511  
       7A    -10.509538     8A    -10.455625     9A    -10.436868  
      10A    -10.407779    11A    -10.378875    12A    -10.356934  
      13A    -10.352438    14A    -10.350077    15A    -10.345622  
      16A    -10.344024    17A     -8.087204    18A     -6.037074  
      19A     -6.032957    20A     -6.025969    21A     -1.385632  
      22A     -1.326720    23A     -1.190247    24A     -1.179857  
      25A     -1.093739    26A     -1.000603    27A     -0.938615  
      28A     -0.904198    29A     -0.888733    30A     -0.866846  
      31A     -0.792509    32A     -0.765637    33A     -0.752232  
      34A     -0.740011    35A     -0.696155    36A     -0.677469  
      37A     -0.668550    38A     -0.643343    39A     -0.629075  
      40A     -0.591354    41A     -0.580182    42A     -0.569144  
      43A     -0.562716    44A     -0.557782    45A     -0.555471  
      46A     -0.547944    47A     -0.539503    48A     -0.533458  
      49A     -0.527491    50A     -0.516273    51A     -0.512616  
      52A     -0.500746    53A     -0.494257    54A     -0.480736  
      55A     -0.474089    56A     -0.441169    57A     -0.420531  
      58A     -0.398213    59A     -0.372164    60A     -0.367856  
      61A     -0.340143    62A     -0.332802  

    Virtual:                                                              

      63A     -0.057539    64A      0.006634    65A      0.024089  
      66A      0.032491    67A      0.036308    68A      0.040646  
      69A      0.049284    70A      0.057529    71A      0.058894  
      72A      0.064332    73A      0.073217    74A      0.076344  
      75A      0.083113    76A      0.090135    77A      0.093024  
      78A      0.101082    79A      0.106592    80A      0.109871  
      81A      0.111688    82A      0.115612    83A      0.119787  
      84A      0.124367    85A      0.129654    86A      0.133406  
      87A      0.136245    88A      0.137863    89A      0.146336  
      90A      0.149596    91A      0.155298    92A      0.157819  
      93A      0.159817    94A      0.165560    95A      0.168835  
      96A      0.171706    97A      0.173544    98A      0.175331  
      99A      0.181338   100A      0.182749   101A      0.187765  
     102A      0.192226   103A      0.198472   104A      0.203506  
     105A      0.210081   106A      0.212755   107A      0.216536  
     108A      0.220836   109A      0.226077   110A      0.230490  
     111A      0.232670   112A      0.235451   113A      0.239449  
     114A      0.246517   115A      0.249068   116A      0.253068  
     117A      0.256147   118A      0.258400   119A      0.262983  
     120A      0.268736   121A      0.270972   122A      0.278877  
     123A      0.280799   124A      0.281544   125A      0.288087  
     126A      0.294937   127A      0.296870   128A      0.301065  
     129A      0.304764   130A      0.308122   131A      0.310869  
     132A      0.321901   133A      0.324724   134A      0.325614  
     135A      0.328962   136A      0.336601   137A      0.339549  
     138A      0.344656   139A      0.348340   140A      0.354444  
     141A      0.358932   142A      0.366449   143A      0.368650  
     144A      0.371651   145A      0.375497   146A      0.379934  
     147A      0.383235   148A      0.385026   149A      0.391042  
     150A      0.395173   151A      0.402266   152A      0.405970  
     153A      0.411462   154A      0.414121   155A      0.416614  
     156A      0.422016   157A      0.432332   158A      0.435115  
     159A      0.440074   160A      0.447395   161A      0.452272  
     162A      0.460882   163A      0.464351   164A      0.471698  
     165A      0.480750   166A      0.484499   167A      0.488211  
     168A      0.491084   169A      0.499808   170A      0.503415  
     171A      0.513355   172A      0.516336   173A      0.521699  
     174A      0.529146   175A      0.535673   176A      0.539333  
     177A      0.539954   178A      0.543330   179A      0.552104  
     180A      0.562807   181A      0.568117   182A      0.574041  
     183A      0.580835   184A      0.589382   185A      0.595773  
     186A      0.599354   187A      0.603037   188A      0.614363  
     189A      0.615826   190A      0.619754   191A      0.624584  
     192A      0.635609   193A      0.635976   194A      0.638276  
     195A      0.644983   196A      0.652429   197A      0.658000  
     198A      0.665030   199A      0.666567   200A      0.670914  
     201A      0.673556   202A      0.679818   203A      0.690435  
     204A      0.693929   205A      0.697770   206A      0.701752  
     207A      0.707968   208A      0.719986   209A      0.728324  
     210A      0.734477   211A      0.741991   212A      0.749471  
     213A      0.751227   214A      0.759438   215A      0.764538  
     216A      0.768591   217A      0.774918   218A      0.778869  
     219A      0.791014   220A      0.798696   221A      0.806544  
     222A      0.808167   223A      0.813872   224A      0.818862  
     225A      0.825508   226A      0.837841   227A      0.841235  
     228A      0.844355   229A      0.850855   230A      0.854453  
     231A      0.858826   232A      0.873617   233A      0.883782  
     234A      0.893462   235A      0.905079   236A      0.910092  
     237A      0.918747   238A      0.934281   239A      0.939877  
     240A      0.942463   241A      0.951952   242A      0.970035  
     243A      0.976133   244A      0.990573   245A      0.995015  
     246A      1.005915   247A      1.011754   248A      1.022891  
     249A      1.036012   250A      1.042153   251A      1.056583  
     252A      1.069103   253A      1.073208   254A      1.078848  
     255A      1.095838   256A      1.099734   257A      1.102044  
     258A      1.110342   259A      1.129867   260A      1.137468  
     261A      1.146675   262A      1.147446   263A      1.164488  
     264A      1.176027   265A      1.187695   266A      1.192418  
     267A      1.214497   268A      1.221412   269A      1.225833  
     270A      1.242214   271A      1.265017   272A      1.273788  
     273A      1.274821   274A      1.285162   275A      1.295352  
     276A      1.298573   277A      1.313880   278A      1.325168  
     279A      1.344832   280A      1.351528   281A      1.354032  
     282A      1.359277   283A      1.365685   284A      1.384047  
     285A      1.391606   286A      1.400362   287A      1.411152  
     288A      1.413543   289A      1.430855   290A      1.446555  
     291A      1.458848   292A      1.470127   293A      1.476579  
     294A      1.487979   295A      1.498774   296A      1.504445  
     297A      1.521001   298A      1.529778   299A      1.538645  
     300A      1.547542   301A      1.554952   302A      1.557284  
     303A      1.565227   304A      1.578019   305A      1.580163  
     306A      1.595093   307A      1.601547   308A      1.608819  
     309A      1.610041   310A      1.623605   311A      1.627887  
     312A      1.633556   313A      1.640420   314A      1.658653  
     315A      1.659490   316A      1.672858   317A      1.682530  
     318A      1.696682   319A      1.700407   320A      1.715737  
     321A      1.728997   322A      1.734152   323A      1.750411  
     324A      1.755550   325A      1.763194   326A      1.764969  
     327A      1.781230   328A      1.788255   329A      1.803799  
     330A      1.820002   331A      1.823008   332A      1.841481  
     333A      1.846253   334A      1.857770   335A      1.869204  
     336A      1.871878   337A      1.882706   338A      1.898237  
     339A      1.902728   340A      1.908758   341A      1.918874  
     342A      1.933982   343A      1.946537   344A      1.952933  
     345A      1.965956   346A      1.975515   347A      1.986521  
     348A      1.989722   349A      2.002177   350A      2.017311  
     351A      2.032537   352A      2.034103   353A      2.053110  
     354A      2.060471   355A      2.074498   356A      2.080160  
     357A      2.088152   358A      2.101579   359A      2.124650  
     360A      2.129248   361A      2.142644   362A      2.168288  
     363A      2.172629   364A      2.177034   365A      2.195092  
     366A      2.204816   367A      2.218780   368A      2.223558  
     369A      2.232143   370A      2.282419   371A      2.286457  
     372A      2.312298   373A      2.320872   374A      2.331625  
     375A      2.336898   376A      2.345444   377A      2.353496  
     378A      2.362952   379A      2.385755   380A      2.405089  
     381A      2.408609   382A      2.442141   383A      2.477999  
     384A      2.484211   385A      2.514362   386A      2.543950  
     387A      2.577336   388A      2.597594   389A      2.612912  
     390A      2.629783   391A      2.659678   392A      2.666752  
     393A      2.682563   394A      2.694432   395A      2.709288  
     396A      2.734257   397A      2.746722   398A      2.775865  
     399A      2.848650   400A      2.939492   401A      2.955384  
     402A      3.005374   403A      3.022554   404A      3.090216  
     405A      3.129270   406A      3.160141   407A      3.357436  
     408A      3.367585   409A      3.374190   410A      3.423142  
     411A      3.461030   412A      3.475192   413A      3.496657  
     414A      3.502656   415A      3.536090   416A      3.554376  
     417A      3.564955   418A      3.597610   419A      3.686253  
     420A      3.713132   421A      3.738539   422A      3.790803  
     423A      3.861477   424A      3.923810   425A      4.444429  
     426A      4.629291   427A      4.656729   428A      4.692442  
     429A      4.720852   430A      4.743465   431A      4.753958  
     432A      4.778584   433A      4.810862   434A      4.858615  
     435A      4.901340  

    Final Occupation by Irrep:
              A 
    DOCC [    62 ]

  @DF-RKS Final Energy: -1188.20483201855882

   => Energetics <=

    Nuclear Repulsion Energy =           1179.2757725464580290
    One-Electron Energy =               -3972.9736788096533928
    Two-Electron Energy =                1695.0431062609723085
    DFT Exchange-Correlation Energy =     -89.5365354427210320
    Empirical Dispersion Energy =          -0.0134965736146370
    VV10 Nonlocal Energy =                  0.0000000000000000
    Total Energy =                      -1188.2048320185588182

Computation Completed


Properties will be evaluated at   0.366061,   0.009391,   0.307956 [a0]

Properties computed using the SCF density matrix

  Nuclear Dipole Moment: [e a0]
     X:    24.1424      Y:    -1.8227      Z:    -3.9089

  Electronic Dipole Moment: [e a0]
     X:   -21.6012      Y:     1.4510      Z:     3.6954

  Dipole Moment: [e a0]
     X:     2.5411      Y:    -0.3716      Z:    -0.2135     Total:     2.5770

  Dipole Moment: [D]
     X:     6.4589      Y:    -0.9446      Z:    -0.5427     Total:     6.5501


*** tstop() called on cpu-spot-dy-c5n2xlarge-1 at Tue Jun 22 17:37:36 2021
Module time:
	user time   =     690.20 seconds =      11.50 minutes
	system time =       7.58 seconds =       0.13 minutes
	total time  =         93 seconds =       1.55 minutes
Total time:
	user time   =    2306.76 seconds =      38.45 minutes
	system time =      23.81 seconds =       0.40 minutes
	total time  =        312 seconds =       5.20 minutes

       N-Body: Complex Energy (fragments = (1,), basis = (1,): -1188.20483201855882)

   ==> N-Body: Now computing 2-body complexes <==


       N-Body: Computing complex (1/1) with fragments (1, 2) in the basis of fragments (1, 2).


*** tstart() called on cpu-spot-dy-c5n2xlarge-1
*** at Tue Jun 22 17:37:36 2021

   => Loading Basis Set <=

    Name: AUG-CC-PVDZ
    Role: ORBITAL
    Keyword: BASIS
    atoms 1             entry N          line   214 file /fsx/users/francis/anaconda3/envs/poltype-dev/share/psi4/basis/aug-cc-pvdz.gbs 
    atoms 2-3, 6-12, 14 entry C          line   178 file /fsx/users/francis/anaconda3/envs/poltype-dev/share/psi4/basis/aug-cc-pvdz.gbs 
    atoms 4-5           entry F          line   286 file /fsx/users/francis/anaconda3/envs/poltype-dev/share/psi4/basis/aug-cc-pvdz.gbs 
    atoms 13            entry S          line   698 file /fsx/users/francis/anaconda3/envs/poltype-dev/share/psi4/basis/aug-cc-pvdz.gbs 
    atoms 15-16, 24     entry O          line   250 file /fsx/users/francis/anaconda3/envs/poltype-dev/share/psi4/basis/aug-cc-pvdz.gbs 
    atoms 17-23, 25-26  entry H          line    36 file /fsx/users/francis/anaconda3/envs/poltype-dev/share/psi4/basis/aug-cc-pvdz.gbs 


         ---------------------------------------------------------
                                   SCF
               by Justin Turney, Rob Parrish, Andy Simmonett
                          and Daniel G. A. Smith
                              RKS Reference
                        8 Threads,  15258 MiB Core
         ---------------------------------------------------------

  ==> Geometry <==

    Molecular point group: c1
    Full point group: C1

    Geometry (in Angstrom), charge = 0, multiplicity = 1:

       Center              X                  Y                   Z               Mass       
    ------------   -----------------  -----------------  -----------------  -----------------
         N           -0.696476231876    -1.505319116114     0.418397487372    14.003074004430
[...]
         H            5.190713768124     0.697759883886     0.428434487372     1.007825032230
         H            4.627553768124    -0.812111116114     1.207577487372     1.007825032230
         H            6.125749768124    -0.815075116114     0.230066487372     1.007825032230
         O           -2.557234031876    -0.079085216114    -2.172570312628    15.994914619570
         H           -3.289232031876    -0.694643216114    -2.250160312628     1.007825032230
         H           -2.835144031876     0.751524783886    -2.564820312628     1.007825032230

  Running in c1 symmetry.

  Rotational constants: A =      0.02729  B =      0.00754  C =      0.00710 [cm^-1]
  Rotational constants: A =    818.22162  B =    226.14792  C =    212.92997 [MHz]
  Nuclear repulsion = 1342.348398926182654

  Charge       = 0
  Multiplicity = 1
  Electrons    = 134
  Nalpha       = 67
  Nbeta        = 67

  ==> Algorithm <==

  SCF Algorithm Type is DF.
  DIIS enabled.
  MOM disabled.
  Fractional occupation disabled.
  Guess Type is SAD.
  Energy threshold   = 1.00e-06
  Density threshold  = 1.00e-06
  Integral threshold = 0.00e+00

  ==> Primary Basis <==

  Basis Set: AUG-CC-PVDZ
    Blend: AUG-CC-PVDZ
    Number of shells: 200
    Number of basis function: 476
    Number of Cartesian functions: 510
    Spherical Harmonics?: true
    Max angular momentum: 2

  ==> DFT Potential <==

   => Composite Functional: WB97X-D <= 

    wB97X-D Hyb-GGA Exchange-Correlation Functional

    J.-D. Chai and M. Head-Gordon, Phys. Chem. Chem. Phys. 10, 6615 (2008)

    Deriv               =              1
    GGA                 =           TRUE
    Meta                =          FALSE

    Exchange Hybrid     =           TRUE
    MP2 Hybrid          =          FALSE

   => Exchange-Correlation Functionals <=

    1.0000   wB97D range-separated functional

   => Exact (HF) Exchange <=

    0.7780            HF,LR [omega = 0.2000]
    0.2220               HF 

   => Molecular Quadrature <=

    Radial Scheme          =       TREUTLER
    Pruning Scheme         =           FLAT
    Nuclear Scheme         =       TREUTLER

    BS radius alpha        =              1
    Pruning alpha          =              1
    Radial Points          =             75
    Spherical Points       =            302
    Total Points           =         588900
    Total Blocks           =           4362
    Max Points             =            256
    Max Functions          =            435

   => WB97X-D: Empirical Dispersion <=

    Chai and Head-Gordon Dispersion Correction
    Chai, J.-D.; Head-Gordon, M. (2010), J. Chem. Phys., 132: 6615-6620

        s6 =       1.000000

   => Loading Basis Set <=

    Name: (AUG-CC-PVDZ AUX)
    Role: JKFIT
    Keyword: DF_BASIS_SCF
    atoms 1             entry N          line   212 file /fsx/users/francis/anaconda3/envs/poltype-dev/share/psi4/basis/aug-cc-pvdz-jkfit.gbs 
    atoms 2-3, 6-12, 14 entry C          line   154 file /fsx/users/francis/anaconda3/envs/poltype-dev/share/psi4/basis/aug-cc-pvdz-jkfit.gbs 
    atoms 4-5           entry F          line   328 file /fsx/users/francis/anaconda3/envs/poltype-dev/share/psi4/basis/aug-cc-pvdz-jkfit.gbs 
    atoms 13            entry S          line   690 file /fsx/users/francis/anaconda3/envs/poltype-dev/share/psi4/basis/aug-cc-pvdz-jkfit.gbs 
    atoms 15-16, 24     entry O          line   270 file /fsx/users/francis/anaconda3/envs/poltype-dev/share/psi4/basis/aug-cc-pvdz-jkfit.gbs 
    atoms 17-23, 25-26  entry H          line    70 file /fsx/users/francis/anaconda3/envs/poltype-dev/share/psi4/basis/aug-cc-pvdz-jkfit.gbs 

  ==> Pre-Iterations <==

   -------------------------------------------------------
    Irrep   Nso     Nmo     Nalpha   Nbeta   Ndocc  Nsocc
   -------------------------------------------------------
     A        476     476       0       0       0       0
   -------------------------------------------------------
    Total     476     476      67      67      67       0
   -------------------------------------------------------

  ==> Integral Setup <==

  ==> DiskDFJK: Density-Fitted J/K Matrices <==

    J tasked:                  Yes
    K tasked:                  Yes
    wK tasked:                 Yes
    Omega:               2.000E-01
    OpenMP threads:              8
    Integrals threads:           8
    Memory [MiB]:             5883
    Algorithm:                Core
    Integral Cache:           NONE
    Schwarz Cutoff:          1E-12
    Fitting Condition:       1E-10

   => Auxiliary Basis Set <=

  Basis Set: (AUG-CC-PVDZ AUX)
    Blend: AUG-CC-PVDZ-JKFIT
    Number of shells: 596
    Number of basis function: 1792
    Number of Cartesian functions: 2081
    Spherical Harmonics?: true
    Max angular momentum: 3

  Cached 100.0% of DFT collocation blocks in 5.430 [GiB].

  Minimum eigenvalue in the overlap matrix is 1.4491619497E-06.
  Using Symmetric Orthogonalization.

  SCF Guess: Superposition of Atomic Densities via on-the-fly atomic UHF.

  ==> Iterations <==

                           Total Energy        Delta E     RMS |[F,P]|

   @DF-RKS iter SAD: -1263.41212583382048   -1.26341e+03   0.00000e+00 
   @DF-RKS iter   1: -1263.98775385006729   -5.75628e-01   2.53850e-03 DIIS
   @DF-RKS iter   2: -1263.98793594955418   -1.82099e-04   2.73808e-03 DIIS
   @DF-RKS iter   3: -1264.60826581813717   -6.20330e-01   5.17278e-04 DIIS
   @DF-RKS iter   4: -1264.63057891423864   -2.23131e-02   1.88676e-04 DIIS
   @DF-RKS iter   5: -1264.63376760931214   -3.18870e-03   5.27596e-05 DIIS
   @DF-RKS iter   6: -1264.63405554682140   -2.87938e-04   1.37198e-05 DIIS
   @DF-RKS iter   7: -1264.63408218698305   -2.66402e-05   4.62206e-06 DIIS
   @DF-RKS iter   8: -1264.63408672436299   -4.53738e-06   1.88850e-06 DIIS
   @DF-RKS iter   9: -1264.63408777049563   -1.04613e-06   1.19135e-06 DIIS
   @DF-RKS iter  10: -1264.63408808335703   -3.12861e-07   3.58560e-07 DIIS
  Energy and wave function converged.


  ==> Post-Iterations <==

    Orbital Energies [Eh]
    ---------------------

    Doubly Occupied:                                                      

       1A    -89.064041     2A    -24.873659     3A    -24.859894  
       4A    -19.295744     5A    -19.291550     6A    -19.281094  
       7A    -14.527585     8A    -10.501212     9A    -10.448329  
      10A    -10.429488    11A    -10.398738    12A    -10.371048  
      13A    -10.348039    14A    -10.344361    15A    -10.342220  
      16A    -10.340632    17A    -10.336610    18A     -8.081521  
      19A     -6.031379    20A     -6.027276    21A     -6.020308  
      22A     -1.378457    23A     -1.319444    24A     -1.182780  
      25A     -1.171466    26A     -1.133023    27A     -1.084747  
      28A     -0.992503    29A     -0.931007    30A     -0.896071  
      31A     -0.880670    32A     -0.859432    33A     -0.785509  
      34A     -0.757456    35A     -0.743795    36A     -0.733034  
      37A     -0.688348    38A     -0.669562    39A     -0.661249  
      40A     -0.644063    41A     -0.635468    42A     -0.621448  
      43A     -0.583414    44A     -0.573002    45A     -0.561613  
      46A     -0.556009    47A     -0.550475    48A     -0.548339  
      49A     -0.541122    50A     -0.532783    51A     -0.528351  
      52A     -0.521117    53A     -0.509567    54A     -0.505521  
      55A     -0.495312    56A     -0.492926    57A     -0.485804  
      58A     -0.473520    59A     -0.466441    60A     -0.434059  
      61A     -0.419802    62A     -0.413570    63A     -0.390844  
      64A     -0.364565    65A     -0.359876    66A     -0.332231  
      67A     -0.326605  

    Virtual:                                                              

      68A     -0.046784    69A      0.014428    70A      0.027347  
      71A      0.033769    72A      0.037054    73A      0.043052  
      74A      0.048925    75A      0.052667    76A      0.059165  
      77A      0.065788    78A      0.069167    79A      0.074758  
      80A      0.079942    81A      0.082764    82A      0.089851  
      83A      0.095187    84A      0.103781    85A      0.109393  
      86A      0.111655    87A      0.116815    88A      0.118145  
      89A      0.121399    90A      0.126882    91A      0.129078  
      92A      0.134166    93A      0.137865    94A      0.138772  
      95A      0.143793    96A      0.150938    97A      0.153334  
      98A      0.155163    99A      0.161748   100A      0.164515  
     101A      0.167791   102A      0.172247   103A      0.174973  
     104A      0.177619   105A      0.179408   106A      0.181642  
     107A      0.186040   108A      0.191230   109A      0.197492  
     110A      0.199245   111A      0.201661   112A      0.207048  
     113A      0.211583   114A      0.212180   115A      0.222424  
     116A      0.223440   117A      0.227935   118A      0.233632  
     119A      0.235563   120A      0.238531   121A      0.240531  
     122A      0.246887   123A      0.252524   124A      0.257201  
     125A      0.259869   126A      0.263531   127A      0.267780  
     128A      0.272485   129A      0.276040   130A      0.278989  
     131A      0.283163   132A      0.285448   133A      0.286839  
     134A      0.290531   135A      0.291337   136A      0.297634  
     137A      0.301687   138A      0.306668   139A      0.310579  
     140A      0.314459   141A      0.319563   142A      0.323457  
     143A      0.326460   144A      0.334680   145A      0.338676  
     146A      0.340677   147A      0.347597   148A      0.349546  
     149A      0.353388   150A      0.356665   151A      0.362309  
     152A      0.368357   153A      0.370615   154A      0.371875  
     155A      0.379549   156A      0.381725   157A      0.383680  
     158A      0.385915   159A      0.389517   160A      0.396063  
     161A      0.402340   162A      0.408925   163A      0.412700  
     164A      0.413966   165A      0.418085   166A      0.422405  
     167A      0.423866   168A      0.430610   169A      0.433342  
     170A      0.439224   171A      0.441110   172A      0.448263  
     173A      0.453659   174A      0.463873   175A      0.473523  
     176A      0.479598   177A      0.486090   178A      0.487202  
     179A      0.491839   180A      0.496091   181A      0.503442  
     182A      0.506720   183A      0.510734   184A      0.512017  
     185A      0.517660   186A      0.521929   187A      0.527940  
     188A      0.531893   189A      0.534912   190A      0.541914  
     191A      0.547924   192A      0.549677   193A      0.553212  
     194A      0.564305   195A      0.567125   196A      0.572853  
     197A      0.574234   198A      0.584243   199A      0.588947  
     200A      0.595458   201A      0.603049   202A      0.605855  
     203A      0.610335   204A      0.616646   205A      0.621881  
     206A      0.628241   207A      0.633234   208A      0.637223  
     209A      0.638577   210A      0.644155   211A      0.649004  
     212A      0.653083   213A      0.658008   214A      0.659375  
     215A      0.671211   216A      0.674919   217A      0.678430  
     218A      0.682763   219A      0.686135   220A      0.689006  
     221A      0.699196   222A      0.705624   223A      0.707609  
     224A      0.710093   225A      0.720677   226A      0.729584  
     227A      0.732462   228A      0.740838   229A      0.745185  
     230A      0.756516   231A      0.760576   232A      0.765884  
     233A      0.770805   234A      0.776828   235A      0.779067  
     236A      0.793465   237A      0.798997   238A      0.801478  
     239A      0.813295   240A      0.817393   241A      0.823420  
     242A      0.828387   243A      0.832569   244A      0.840082  
     245A      0.843969   246A      0.851420   247A      0.856071  
     248A      0.860503   249A      0.861919   250A      0.868052  
     251A      0.875523   252A      0.888805   253A      0.892467  
     254A      0.907824   255A      0.911182   256A      0.922817  
     257A      0.926629   258A      0.934927   259A      0.948375  
     260A      0.951000   261A      0.961162   262A      0.972575  
     263A      0.981557   264A      0.988695   265A      1.002918  
     266A      1.006437   267A      1.016133   268A      1.020396  
     269A      1.026965   270A      1.043660   271A      1.047279  
     272A      1.063788   273A      1.077349   274A      1.080124  
     275A      1.089029   276A      1.096005   277A      1.105182  
     278A      1.110254   279A      1.119766   280A      1.134261  
     281A      1.141545   282A      1.143254   283A      1.152340  
     284A      1.158019   285A      1.164975   286A      1.186894  
     287A      1.195068   288A      1.199581   289A      1.206434  
     290A      1.210030   291A      1.225296   292A      1.235714  
     293A      1.240558   294A      1.254109   295A      1.259610  
     296A      1.288772   297A      1.290943   298A      1.293181  
     299A      1.309459   300A      1.315332   301A      1.327949  
     302A      1.333197   303A      1.341850   304A      1.351462  
     305A      1.360172   306A      1.369572   307A      1.375652  
     308A      1.381661   309A      1.392961   310A      1.400482  
     311A      1.412108   312A      1.419117   313A      1.424168  
     314A      1.438001   315A      1.443539   316A      1.448443  
     317A      1.462448   318A      1.480065   319A      1.490955  
     320A      1.495355   321A      1.503654   322A      1.511793  
     323A      1.525625   324A      1.535791   325A      1.546313  
     326A      1.551635   327A      1.564325   328A      1.566493  
     329A      1.573674   330A      1.578383   331A      1.596992  
     332A      1.605663   333A      1.608063   334A      1.617085  
     335A      1.619583   336A      1.623896   337A      1.634157  
     338A      1.641214   339A      1.649487   340A      1.659447  
     341A      1.674966   342A      1.678238   343A      1.683116  
     344A      1.699474   345A      1.716142   346A      1.720226  
     347A      1.726197   348A      1.738109   349A      1.748581  
     350A      1.751036   351A      1.767094   352A      1.775015  
     353A      1.778221   354A      1.794173   355A      1.801722  
     356A      1.814709   357A      1.823846   358A      1.831852  
     359A      1.840722   360A      1.855199   361A      1.864543  
     362A      1.870846   363A      1.878452   364A      1.881723  
     365A      1.888600   366A      1.906876   367A      1.912489  
     368A      1.916114   369A      1.930235   370A      1.939007  
     371A      1.957952   372A      1.963988   373A      1.969474  
     374A      1.979745   375A      1.987204   376A      1.996466  
     377A      2.007017   378A      2.011419   379A      2.030559  
     380A      2.036705   381A      2.047871   382A      2.051824  
     383A      2.064048   384A      2.079129   385A      2.090006  
     386A      2.097990   387A      2.109598   388A      2.114401  
     389A      2.135594   390A      2.140616   391A      2.159107  
     392A      2.161582   393A      2.179838   394A      2.192536  
     395A      2.208947   396A      2.214536   397A      2.220691  
     398A      2.234721   399A      2.238621   400A      2.253379  
     401A      2.280222   402A      2.291134   403A      2.300428  
     404A      2.319274   405A      2.334400   406A      2.338374  
     407A      2.344392   408A      2.352337   409A      2.356664  
     410A      2.364121   411A      2.378140   412A      2.413304  
     413A      2.424126   414A      2.427382   415A      2.450418  
     416A      2.454220   417A      2.499980   418A      2.507243  
     419A      2.528561   420A      2.566354   421A      2.598788  
     422A      2.607547   423A      2.617781   424A      2.636785  
     425A      2.660268   426A      2.675258   427A      2.697852  
     428A      2.701156   429A      2.708597   430A      2.717317  
     431A      2.747528   432A      2.756742   433A      2.819647  
     434A      2.866282   435A      2.880102   436A      2.967276  
     437A      2.975666   438A      3.028484   439A      3.043012  
     440A      3.115011   441A      3.172937   442A      3.205255  
     443A      3.377950   444A      3.385752   445A      3.402696  
     446A      3.437549   447A      3.460500   448A      3.468282  
     449A      3.485678   450A      3.495533   451A      3.523381  
     452A      3.523854   453A      3.535521   454A      3.566191  
     455A      3.578161   456A      3.617202   457A      3.640008  
     458A      3.713791   459A      3.740481   460A      3.756332  
     461A      3.810785   462A      3.821055   463A      3.911266  
     464A      3.976783   465A      4.033828   466A      4.483872  
     467A      4.641511   468A      4.673632   469A      4.725061  
     470A      4.732742   471A      4.754032   472A      4.765927  
     473A      4.794301   474A      4.825452   475A      4.885869  
     476A      4.910911  

    Final Occupation by Irrep:
              A 
    DOCC [    67 ]

  @DF-RKS Final Energy: -1264.63408808335703

   => Energetics <=

    Nuclear Repulsion Energy =           1342.3483989261826537
    One-Electron Energy =               -4404.5248244976501155
    Two-Electron Energy =                1893.5719773507273658
    DFT Exchange-Correlation Energy =     -96.0132608899912725
    Empirical Dispersion Energy =          -0.0163789726257266
    VV10 Nonlocal Energy =                  0.0000000000000000
    Total Energy =                      -1264.6340880833570282

Computation Completed


Properties will be evaluated at   0.000000,  -0.000000,   0.000000 [a0]

Properties computed using the SCF density matrix

  Nuclear Dipole Moment: [e a0]
     X:    19.3008      Y:    -1.7463      Z:    -7.6659

  Electronic Dipole Moment: [e a0]
     X:   -17.5741      Y:     1.4808      Z:     6.9976

  Dipole Moment: [e a0]
     X:     1.7267      Y:    -0.2655      Z:    -0.6683     Total:     1.8704

  Dipole Moment: [D]
     X:     4.3887      Y:    -0.6748      Z:    -1.6986     Total:     4.7541


*** tstop() called on cpu-spot-dy-c5n2xlarge-1 at Tue Jun 22 17:39:40 2021
Module time:
	user time   =     915.78 seconds =      15.26 minutes
	system time =       9.11 seconds =       0.15 minutes
	total time  =        124 seconds =       2.07 minutes
Total time:
	user time   =    3222.58 seconds =      53.71 minutes
	system time =      32.92 seconds =       0.55 minutes
	total time  =        436 seconds =       7.27 minutes

       N-Body: Complex Energy (fragments = (1, 2), basis = (1, 2): -1264.63408808335703)

   ==> N-Body: Counterpoise Corrected (CP) energies <==

   n-Body     Total Energy [Eh]       I.E. [kcal/mol]      Delta [kcal/mol]
        1    -1264.624402950602        0.000000000000        0.000000000000
        2    -1264.633377136376       -5.631386592719       -5.631386592719

   => Loading Basis Set <=

    Name: DEF2-SVP
    Role: ORBITAL
    Keyword: BASIS
    atoms 1             entry N          line   110 file /fsx/users/francis/anaconda3/envs/poltype-dev/share/psi4/basis/def2-svp.gbs 
    atoms 2-3, 6-12, 14 entry C          line    90 file /fsx/users/francis/anaconda3/envs/poltype-dev/share/psi4/basis/def2-svp.gbs 
    atoms 4-5           entry F          line   150 file /fsx/users/francis/anaconda3/envs/poltype-dev/share/psi4/basis/def2-svp.gbs 
    atoms 13            entry S          line   328 file /fsx/users/francis/anaconda3/envs/poltype-dev/share/psi4/basis/def2-svp.gbs 
    atoms 15-16, 24     entry O          line   130 file /fsx/users/francis/anaconda3/envs/poltype-dev/share/psi4/basis/def2-svp.gbs 
    atoms 17-23, 25-26  entry H          line    15 file /fsx/users/francis/anaconda3/envs/poltype-dev/share/psi4/basis/def2-svp.gbs 

CP Energy =  -0.008974
    Psi4 stopped on: Tuesday, 22 June 2021 05:39PM
    Psi4 wall time for execution: 0:07:16.62

*** Psi4 exiting successfully. Buy a developer a beer!
