
    -----------------------------------------------------------------------
          Psi4: An Open-Source Ab Initio Electronic Structure Package
                               Psi4 1.3.2 release

                         Git: Rev {HEAD} ecbda83 


    R. M. Parrish, L. A. Burns, D. G. A. Smith, A. C. Simmonett,
    A. E. DePrince III, E. G. Hohenstein, U. Bozkaya, A. Yu. Sokolov,
    R. Di Remigio, R. M. Richard, J. F. Gonthier, A. M. James,
    H. R. McAlexander, A. Kumar, M. Saitow, X. Wang, B. P. Pritchard,
    P. Verma, H. F. Schaefer III, K. Patkowski, R. A. King, E. F. Valeev,
    F. A. Evangelista, J. M. Turney, T. D. Crawford, and C. D. Sherrill,
    J. Chem. Theory Comput. 13(7) pp 3185--3197 (2017).
    (doi: 10.1021/acs.jctc.7b00174)


                         Additional Contributions by
    P. Kraus, H. Kruse, M. H. Lechner, M. C. Schieber, R. A. Shaw,
    A. Alenaizan, R. Galvelis, Z. L. Glick, S. Lehtola, and J. P. Misiewicz

    -----------------------------------------------------------------------


    Psi4 started on: Tuesday, 22 June 2021 05:10PM

    Process ID: 28676
    Host:       cpu-spot-dy-c5n2xlarge-1
    PSIDATADIR: /fsx/users/francis/anaconda3/envs/poltype-dev/share/psi4
    Memory:     500.0 MiB
    Threads:    1
    
  ==> Input File <==

--------------------------------------------------------------------------
molecule { 
0 1
  N                 -0.8329220    -1.4316820     0.0850080
  C                 -2.1158040    -1.1558080     0.4843320
  C                 -2.4289050     0.3591460     0.7054530
  F                 -3.7555890     0.5940930     0.3944060
  F                 -2.2736550     0.6195540     2.0481740
  C                 -1.5199820     1.3601920    -0.0901970
  C                 -0.1640620     0.8757330    -0.4452730
  C                  0.7840340     1.7520530    -1.0162350
  C                  2.0710080     1.3050290    -1.3425650
  C                  2.4281110    -0.0524070    -1.1340790
  C                  1.4580920    -0.9467950    -0.6323440
  C                  0.1650140    -0.5031110    -0.3071010
  S                  4.0263480    -0.7214740    -1.4867930
  C                  4.9860630    -0.3162710    -0.0061480
  O                 -2.9120640    -2.0610510     0.6968400
  O                 -1.8772710     2.5202120    -0.2916330
  H                  2.7862340     2.0217350    -1.7452190
  H                  0.4932850     2.7892110    -1.1843840
  H                 -0.6535010    -2.4233640     0.0118350
  H                  1.7211530    -1.9936930    -0.4758020
  H                  5.0542680     0.7713970     0.0950450
  H                  4.4911080    -0.7384740     0.8741880
  H                  5.9893040    -0.7414380    -0.1033230
--
0 1
  O                 -2.3735804     0.3669992    -1.8471154
  H                 -3.1055784    -0.2485588    -1.9247054
  H                 -2.6514904     1.1976092    -2.2393654
}
memory 16GB
set_num_threads(8)
psi4_io.set_default_path("/scratch/Psi4-ligand")
set maxiter 500
set freeze_core True
set PROPERTIES_ORIGIN ["COM"]
e_dim= energy('wb97x-d/aug-cc-pVDZ',bsse_type='cp')

psi4.print_out('CP Energy = %10.6f' % (e_dim))
clean()
--------------------------------------------------------------------------

  Memory set to  14.901 GiB by Python driver.
  Threads set to 8 by Python driver.


   ===> N-Body Interaction Abacus <===
        BSSE Treatment:                     cp
        Number of 1-body computations:     4
        Number of 2-body computations:     1

   ==> N-Body: Now computing 1-body complexes <==


       N-Body: Computing complex (1/4) with fragments (2,) in the basis of fragments (2,).


*** tstart() called on cpu-spot-dy-c5n2xlarge-1
*** at Tue Jun 22 17:10:30 2021

   => Loading Basis Set <=

    Name: AUG-CC-PVDZ
    Role: ORBITAL
    Keyword: BASIS
    atoms 1   entry O          line   250 file /fsx/users/francis/anaconda3/envs/poltype-dev/share/psi4/basis/aug-cc-pvdz.gbs 
    atoms 2-3 entry H          line    36 file /fsx/users/francis/anaconda3/envs/poltype-dev/share/psi4/basis/aug-cc-pvdz.gbs 


         ---------------------------------------------------------
                                   SCF
               by Justin Turney, Rob Parrish, Andy Simmonett
                          and Daniel G. A. Smith
                              RKS Reference
                        8 Threads,  15258 MiB Core
         ---------------------------------------------------------

  ==> Geometry <==

    Molecular point group: c1
    Full point group: C1

    Geometry (in Angstrom), charge = 0, multiplicity = 1:

       Center              X                  Y                   Z               Mass       
    ------------   -----------------  -----------------  -----------------  -----------------
         O           -2.259221114440     0.267663657718    -1.559185402252    15.994914619570
         H           -2.991219114440    -0.347894342282    -1.636775402252     1.007825032230
         H           -2.537131114440     1.098273657718    -1.951435402252     1.007825032230

  Running in c1 symmetry.

  Rotational constants: A =     13.74886  B =      0.11719  C =      0.11623 [cm^-1]
  Rotational constants: A = 412180.37429  B =   3513.40149  C =   3484.62739 [MHz]
  Nuclear repulsion =    9.164891593603706

  Charge       = 0
  Multiplicity = 1
  Electrons    = 10
  Nalpha       = 5
  Nbeta        = 5

  ==> Algorithm <==

  SCF Algorithm Type is DF.
  DIIS enabled.
  MOM disabled.
  Fractional occupation disabled.
  Guess Type is SAD.
  Energy threshold   = 1.00e-06
  Density threshold  = 1.00e-06
  Integral threshold = 0.00e+00

  ==> Primary Basis <==

  Basis Set: AUG-CC-PVDZ
    Blend: AUG-CC-PVDZ
    Number of shells: 19
    Number of basis function: 41
    Number of Cartesian functions: 43
    Spherical Harmonics?: true
    Max angular momentum: 2

  ==> DFT Potential <==

   => Composite Functional: WB97X-D <= 

    wB97X-D Hyb-GGA Exchange-Correlation Functional

    J.-D. Chai and M. Head-Gordon, Phys. Chem. Chem. Phys. 10, 6615 (2008)

    Deriv               =              1
    GGA                 =           TRUE
    Meta                =          FALSE

    Exchange Hybrid     =           TRUE
    MP2 Hybrid          =          FALSE

   => Exchange-Correlation Functionals <=

    1.0000   wB97D range-separated functional

   => Exact (HF) Exchange <=

    0.7780            HF,LR [omega = 0.2000]
    0.2220               HF 

   => Molecular Quadrature <=

    Radial Scheme          =       TREUTLER
    Pruning Scheme         =           FLAT
    Nuclear Scheme         =       TREUTLER

    BS radius alpha        =              1
    Pruning alpha          =              1
    Radial Points          =             75
    Spherical Points       =            302
    Total Points           =          67950
    Total Blocks           =            567
    Max Points             =            256
    Max Functions          =             41

   => WB97X-D: Empirical Dispersion <=

    Chai and Head-Gordon Dispersion Correction
    Chai, J.-D.; Head-Gordon, M. (2010), J. Chem. Phys., 132: 6615-6620

        s6 =       1.000000

   => Loading Basis Set <=

    Name: (AUG-CC-PVDZ AUX)
    Role: JKFIT
    Keyword: DF_BASIS_SCF
    atoms 1   entry O          line   270 file /fsx/users/francis/anaconda3/envs/poltype-dev/share/psi4/basis/aug-cc-pvdz-jkfit.gbs 
    atoms 2-3 entry H          line    70 file /fsx/users/francis/anaconda3/envs/poltype-dev/share/psi4/basis/aug-cc-pvdz-jkfit.gbs 

  ==> Pre-Iterations <==

   -------------------------------------------------------
    Irrep   Nso     Nmo     Nalpha   Nbeta   Ndocc  Nsocc
   -------------------------------------------------------
     A         41      41       0       0       0       0
   -------------------------------------------------------
    Total      41      41       5       5       5       0
   -------------------------------------------------------

  ==> Integral Setup <==

  ==> DiskDFJK: Density-Fitted J/K Matrices <==

    J tasked:                  Yes
    K tasked:                  Yes
    wK tasked:                 Yes
    Omega:               2.000E-01
    OpenMP threads:              8
    Integrals threads:           8
    Memory [MiB]:            11363
    Algorithm:                Core
    Integral Cache:           NONE
    Schwarz Cutoff:          1E-12
    Fitting Condition:       1E-10

   => Auxiliary Basis Set <=

  Basis Set: (AUG-CC-PVDZ AUX)
    Blend: AUG-CC-PVDZ-JKFIT
    Number of shells: 52
    Number of basis function: 150
    Number of Cartesian functions: 171
    Spherical Harmonics?: true
    Max angular momentum: 3

  Cached 100.0% of DFT collocation blocks in 0.079 [GiB].

  Minimum eigenvalue in the overlap matrix is 2.8082563666E-03.
  Using Symmetric Orthogonalization.

  SCF Guess: Superposition of Atomic Densities via on-the-fly atomic UHF.

  ==> Iterations <==

                           Total Energy        Delta E     RMS |[F,P]|

   @DF-RKS iter SAD:   -75.95321017028957   -7.59532e+01   0.00000e+00 
   @DF-RKS iter   1:   -76.27484131920143   -3.21631e-01   1.51010e-02 DIIS
   @DF-RKS iter   2:   -76.22800118233130    4.68401e-02   1.78014e-02 DIIS
   @DF-RKS iter   3:   -76.41941811547569   -1.91417e-01   3.63289e-04 DIIS
   @DF-RKS iter   4:   -76.41956276384278   -1.44648e-04   9.79730e-05 DIIS
   @DF-RKS iter   5:   -76.41957059826922   -7.83443e-06   1.86377e-05 DIIS
   @DF-RKS iter   6:   -76.41957092172674   -3.23458e-07   2.00451e-06 DIIS
   @DF-RKS iter   7:   -76.41957093212662   -1.03999e-08   2.52178e-07 DIIS
  Energy and wave function converged.


  ==> Post-Iterations <==

    Orbital Energies [Eh]
    ---------------------

    Doubly Occupied:                                                      

       1A    -19.278507     2A     -1.119752     3A     -0.631221  
       4A     -0.479253     5A     -0.406793  

    Virtual:                                                              

       6A      0.033978     7A      0.060980     8A      0.162056  
       9A      0.190838    10A      0.199602    11A      0.217819  
      12A      0.255234    13A      0.302250    14A      0.362190  
      15A      0.377385    16A      0.407480    17A      0.518555  
      18A      0.579937    19A      0.603767    20A      0.715999  
      21A      0.810971    22A      0.980942    23A      0.992734  
      24A      1.034567    25A      1.172285    26A      1.288666  
      27A      1.314878    28A      1.397561    29A      1.818333  
      30A      1.849014    31A      1.921660    32A      2.227744  
      33A      2.229295    34A      2.375882    35A      2.497143  
      36A      2.714499    37A      3.372907    38A      3.384970  
      39A      3.402363    40A      3.734012    41A      3.969760  

    Final Occupation by Irrep:
              A 
    DOCC [     5 ]

  @DF-RKS Final Energy:   -76.41957093212662

   => Energetics <=

    Nuclear Repulsion Energy =              9.1648915936037056
    One-Electron Energy =                -122.9438363745281038
    Two-Electron Energy =                  43.8319368268305567
    DFT Exchange-Correlation Energy =      -6.4725325559271027
    Empirical Dispersion Energy =          -0.0000304221056586
    VV10 Nonlocal Energy =                  0.0000000000000000
    Total Energy =                        -76.4195709321266037

Computation Completed


Properties will be evaluated at  -4.376101,   0.528552,  -2.996116 [a0]

Properties computed using the SCF density matrix

  Nuclear Dipole Moment: [e a0]
     X:    -0.8405      Y:     0.1790      Z:    -0.3910

  Electronic Dipole Moment: [e a0]
     X:     0.1952      Y:    -0.0416      Z:     0.0908

  Dipole Moment: [e a0]
     X:    -0.6453      Y:     0.1374      Z:    -0.3002     Total:     0.7249

  Dipole Moment: [D]
     X:    -1.6402      Y:     0.3492      Z:    -0.7631     Total:     1.8425


*** tstop() called on cpu-spot-dy-c5n2xlarge-1 at Tue Jun 22 17:10:31 2021
Module time:
	user time   =       8.18 seconds =       0.14 minutes
	system time =       0.36 seconds =       0.01 minutes
	total time  =          1 seconds =       0.02 minutes
Total time:
	user time   =       8.18 seconds =       0.14 minutes
	system time =       0.36 seconds =       0.01 minutes
	total time  =          1 seconds =       0.02 minutes

       N-Body: Complex Energy (fragments = (2,), basis = (2,):   -76.41957093212662)

       N-Body: Computing complex (2/4) with fragments (2,) in the basis of fragments (1, 2).


*** tstart() called on cpu-spot-dy-c5n2xlarge-1
*** at Tue Jun 22 17:10:31 2021

   => Loading Basis Set <=

    Name: AUG-CC-PVDZ
    Role: ORBITAL
    Keyword: BASIS
    atoms 1             entry N          line   214 file /fsx/users/francis/anaconda3/envs/poltype-dev/share/psi4/basis/aug-cc-pvdz.gbs 
    atoms 2-3, 6-12, 14 entry C          line   178 file /fsx/users/francis/anaconda3/envs/poltype-dev/share/psi4/basis/aug-cc-pvdz.gbs 
    atoms 4-5           entry F          line   286 file /fsx/users/francis/anaconda3/envs/poltype-dev/share/psi4/basis/aug-cc-pvdz.gbs 
    atoms 13            entry S          line   698 file /fsx/users/francis/anaconda3/envs/poltype-dev/share/psi4/basis/aug-cc-pvdz.gbs 
    atoms 15-16, 24     entry O          line   250 file /fsx/users/francis/anaconda3/envs/poltype-dev/share/psi4/basis/aug-cc-pvdz.gbs 
    atoms 17-23, 25-26  entry H          line    36 file /fsx/users/francis/anaconda3/envs/poltype-dev/share/psi4/basis/aug-cc-pvdz.gbs 


         ---------------------------------------------------------
                                   SCF
               by Justin Turney, Rob Parrish, Andy Simmonett
                          and Daniel G. A. Smith
                              RKS Reference
                        8 Threads,  15258 MiB Core
         ---------------------------------------------------------

  ==> Geometry <==

    Molecular point group: c1
    Full point group: C1

    Geometry (in Angstrom), charge = 0, multiplicity = 1:

       Center              X                  Y                   Z               Mass       
    ------------   -----------------  -----------------  -----------------  -----------------
      Gh(N)          -0.718562714440    -1.531017542282     0.372937997748    14.003074004430
      Gh(C)          -2.001444714440    -1.255143542282     0.772261997748    12.000000000000
      Gh(C)          -2.314545714440     0.259810457718     0.993382997748    12.000000000000
      Gh(F)          -3.641229714440     0.494757457718     0.682335997748    18.998403162730
      Gh(F)          -2.159295714440     0.520218457718     2.336103997748    18.998403162730
      Gh(C)          -1.405622714440     1.260856457718     0.197732997748    12.000000000000
      Gh(C)          -0.049702714440     0.776397457718    -0.157343002252    12.000000000000
      Gh(C)           0.898393285560     1.652717457718    -0.728305002252    12.000000000000
      Gh(C)           2.185367285560     1.205693457718    -1.054635002252    12.000000000000
      Gh(C)           2.542470285560    -0.151742542282    -0.846149002252    12.000000000000
      Gh(C)           1.572451285560    -1.046130542282    -0.344414002252    12.000000000000
      Gh(C)           0.279373285560    -0.602446542282    -0.019171002252    12.000000000000
      Gh(S)           4.140707285560    -0.820809542282    -1.198863002252    31.972071174400
      Gh(C)           5.100422285560    -0.415606542282     0.281781997748    12.000000000000
      Gh(O)          -2.797704714440    -2.160386542282     0.984769997748    15.994914619570
      Gh(O)          -1.762911714440     2.420876457718    -0.003703002252    15.994914619570
      Gh(H)           2.900593285560     1.922399457718    -1.457289002252     1.007825032230
      Gh(H)           0.607644285560     2.689875457718    -0.896454002252     1.007825032230
      Gh(H)          -0.539141714440    -2.522699542282     0.299764997748     1.007825032230
      Gh(H)           1.835512285560    -2.093028542282    -0.187872002252     1.007825032230
      Gh(H)           5.168627285560     0.672061457718     0.382974997748     1.007825032230
      Gh(H)           4.605467285560    -0.837809542282     1.162117997748     1.007825032230
      Gh(H)           6.103663285560    -0.840773542282     0.184606997748     1.007825032230
         O           -2.259221114440     0.267663657718    -1.559185402252    15.994914619570
         H           -2.991219114440    -0.347894342282    -1.636775402252     1.007825032230
         H           -2.537131114440     1.098273657718    -1.951435402252     1.007825032230

  Running in c1 symmetry.

  Rotational constants: A =      0.03029  B =      0.00781  C =      0.00712 [cm^-1]
  Rotational constants: A =    907.97436  B =    234.07127  C =    213.56849 [MHz]
  Nuclear repulsion =    9.164891593603706

  Charge       = 0
  Multiplicity = 1
  Electrons    = 10
  Nalpha       = 5
  Nbeta        = 5

  ==> Algorithm <==

  SCF Algorithm Type is DF.
  DIIS enabled.
  MOM disabled.
  Fractional occupation disabled.
  Guess Type is SAD.
  Energy threshold   = 1.00e-06
  Density threshold  = 1.00e-06
  Integral threshold = 0.00e+00

  ==> Primary Basis <==

  Basis Set: AUG-CC-PVDZ
    Blend: AUG-CC-PVDZ
    Number of shells: 200
    Number of basis function: 476
    Number of Cartesian functions: 510
    Spherical Harmonics?: true
    Max angular momentum: 2

  ==> DFT Potential <==

   => Composite Functional: WB97X-D <= 

    wB97X-D Hyb-GGA Exchange-Correlation Functional

    J.-D. Chai and M. Head-Gordon, Phys. Chem. Chem. Phys. 10, 6615 (2008)

    Deriv               =              1
    GGA                 =           TRUE
    Meta                =          FALSE

    Exchange Hybrid     =           TRUE
    MP2 Hybrid          =          FALSE

   => Exchange-Correlation Functionals <=

    1.0000   wB97D range-separated functional

   => Exact (HF) Exchange <=

    0.7780            HF,LR [omega = 0.2000]
    0.2220               HF 

   => Molecular Quadrature <=

    Radial Scheme          =       TREUTLER
    Pruning Scheme         =           FLAT
    Nuclear Scheme         =       TREUTLER

    BS radius alpha        =              1
    Pruning alpha          =              1
    Radial Points          =             75
    Spherical Points       =            302
    Total Points           =         588900
    Total Blocks           =           4355
    Max Points             =            256
    Max Functions          =            436

   => WB97X-D: Empirical Dispersion <=

    Chai and Head-Gordon Dispersion Correction
    Chai, J.-D.; Head-Gordon, M. (2010), J. Chem. Phys., 132: 6615-6620

        s6 =       1.000000

   => Loading Basis Set <=

    Name: (AUG-CC-PVDZ AUX)
    Role: JKFIT
    Keyword: DF_BASIS_SCF
    atoms 1             entry N          line   212 file /fsx/users/francis/anaconda3/envs/poltype-dev/share/psi4/basis/aug-cc-pvdz-jkfit.gbs 
    atoms 2-3, 6-12, 14 entry C          line   154 file /fsx/users/francis/anaconda3/envs/poltype-dev/share/psi4/basis/aug-cc-pvdz-jkfit.gbs 
    atoms 4-5           entry F          line   328 file /fsx/users/francis/anaconda3/envs/poltype-dev/share/psi4/basis/aug-cc-pvdz-jkfit.gbs 
    atoms 13            entry S          line   690 file /fsx/users/francis/anaconda3/envs/poltype-dev/share/psi4/basis/aug-cc-pvdz-jkfit.gbs 
    atoms 15-16, 24     entry O          line   270 file /fsx/users/francis/anaconda3/envs/poltype-dev/share/psi4/basis/aug-cc-pvdz-jkfit.gbs 
    atoms 17-23, 25-26  entry H          line    70 file /fsx/users/francis/anaconda3/envs/poltype-dev/share/psi4/basis/aug-cc-pvdz-jkfit.gbs 

  ==> Pre-Iterations <==

   -------------------------------------------------------
    Irrep   Nso     Nmo     Nalpha   Nbeta   Ndocc  Nsocc
   -------------------------------------------------------
     A        476     476       0       0       0       0
   -------------------------------------------------------
    Total     476     476       5       5       5       0
   -------------------------------------------------------

  ==> Integral Setup <==

  ==> DiskDFJK: Density-Fitted J/K Matrices <==

    J tasked:                  Yes
    K tasked:                  Yes
    wK tasked:                 Yes
    Omega:               2.000E-01
    OpenMP threads:              8
    Integrals threads:           8
    Memory [MiB]:             5769
    Algorithm:                Core
    Integral Cache:           NONE
    Schwarz Cutoff:          1E-12
    Fitting Condition:       1E-10

   => Auxiliary Basis Set <=

  Basis Set: (AUG-CC-PVDZ AUX)
    Blend: AUG-CC-PVDZ-JKFIT
    Number of shells: 596
    Number of basis function: 1792
    Number of Cartesian functions: 2081
    Spherical Harmonics?: true
    Max angular momentum: 3

  Cached 100.0% of DFT collocation blocks in 5.541 [GiB].

  Minimum eigenvalue in the overlap matrix is 1.4580245773E-06.
  Using Symmetric Orthogonalization.

  SCF Guess: Superposition of Atomic Densities via on-the-fly atomic UHF.

  ==> Iterations <==

                           Total Energy        Delta E     RMS |[F,P]|

   @DF-RKS iter SAD:   -75.95321863278747   -7.59532e+01   0.00000e+00 
   @DF-RKS iter   1:   -76.27585979554371   -3.22641e-01   1.30786e-03 DIIS
   @DF-RKS iter   2:   -76.22885113766438    4.70087e-02   1.54057e-03 DIIS
   @DF-RKS iter   3:   -76.42039559455435   -1.91544e-01   3.25110e-05 DIIS
   @DF-RKS iter   4:   -76.42055369296918   -1.58098e-04   9.15899e-06 DIIS
   @DF-RKS iter   5:   -76.42056276258906   -9.06962e-06   1.66434e-06 DIIS
   @DF-RKS iter   6:   -76.42056311796749   -3.55378e-07   1.91589e-07 DIIS
  Energy and wave function converged.


  ==> Post-Iterations <==

    Orbital Energies [Eh]
    ---------------------

    Doubly Occupied:                                                      

       1A    -19.278501     2A     -1.119480     3A     -0.630889  
       4A     -0.478843     5A     -0.406322  

    Virtual:                                                              

       6A      0.022183     7A      0.030894     8A      0.038043  
       9A      0.047987    10A      0.051698    11A      0.054732  
      12A      0.061667    13A      0.069876    14A      0.076565  
      15A      0.077006    16A      0.083110    17A      0.089391  
      18A      0.096135    19A      0.098179    20A      0.102753  
      21A      0.109477    22A      0.109983    23A      0.120553  
      24A      0.121036    25A      0.124376    26A      0.134681  
      27A      0.137936    28A      0.143079    29A      0.144459  
      30A      0.149996    31A      0.153033    32A      0.158430  
      33A      0.162208    34A      0.165702    35A      0.170782  
      36A      0.177143    37A      0.179469    38A      0.180656  
      39A      0.184320    40A      0.189984    41A      0.196938  
      42A      0.199471    43A      0.205118    44A      0.209022  
      45A      0.214845    46A      0.215077    47A      0.217664  
      48A      0.225945    49A      0.228108    50A      0.233838  
      51A      0.237639    52A      0.243631    53A      0.247018  
      54A      0.251312    55A      0.257431    56A      0.262022  
      57A      0.264706    58A      0.268215    59A      0.279152  
      60A      0.285545    61A      0.289784    62A      0.295546  
      63A      0.299143    64A      0.301492    65A      0.309566  
      66A      0.314799    67A      0.324818    68A      0.327897  
      69A      0.332833    70A      0.336298    71A      0.341393  
      72A      0.350516    73A      0.352554    74A      0.358256  
      75A      0.364471    76A      0.369172    77A      0.374241  
      78A      0.379623    79A      0.382559    80A      0.392827  
      81A      0.393624    82A      0.395610    83A      0.408850  
      84A      0.410394    85A      0.410654    86A      0.419402  
      87A      0.424309    88A      0.430882    89A      0.438301  
      90A      0.440725    91A      0.448889    92A      0.453996  
      93A      0.458195    94A      0.466827    95A      0.470553  
      96A      0.473503    97A      0.475771    98A      0.478501  
      99A      0.486693   100A      0.491147   101A      0.504335  
     102A      0.509636   103A      0.515997   104A      0.523065  
     105A      0.525205   106A      0.525967   107A      0.536811  
     108A      0.538606   109A      0.540882   110A      0.545179  
     111A      0.550773   112A      0.561353   113A      0.562633  
     114A      0.572238   115A      0.578467   116A      0.583148  
     117A      0.587421   118A      0.596572   119A      0.600049  
     120A      0.609076   121A      0.613423   122A      0.618638  
     123A      0.624909   124A      0.633922   125A      0.636984  
     126A      0.641793   127A      0.648630   128A      0.651388  
     129A      0.660989   130A      0.665042   131A      0.670559  
     132A      0.678451   133A      0.686793   134A      0.694177  
     135A      0.697110   136A      0.708080   137A      0.709442  
     138A      0.721383   139A      0.724531   140A      0.729848  
     141A      0.736671   142A      0.738746   143A      0.752454  
     144A      0.758689   145A      0.765689   146A      0.774328  
     147A      0.777154   148A      0.782085   149A      0.789956  
     150A      0.802912   151A      0.812944   152A      0.816468  
     153A      0.819797   154A      0.822451   155A      0.831507  
     156A      0.843825   157A      0.846719   158A      0.849182  
     159A      0.853172   160A      0.861641   161A      0.866850  
     162A      0.876981   163A      0.882887   164A      0.886308  
     165A      0.889510   166A      0.894596   167A      0.904328  
     168A      0.910591   169A      0.914688   170A      0.930150  
     171A      0.937886   172A      0.947284   173A      0.954161  
     174A      0.956388   175A      0.962284   176A      0.974133  
     177A      0.981103   178A      0.982438   179A      0.990890  
     180A      0.994952   181A      1.006920   182A      1.011242  
     183A      1.016079   184A      1.023228   185A      1.030462  
     186A      1.036961   187A      1.043515   188A      1.056660  
     189A      1.066461   190A      1.079082   191A      1.083280  
     192A      1.090833   193A      1.093753   194A      1.108551  
     195A      1.116608   196A      1.143697   197A      1.149014  
     198A      1.164000   199A      1.166041   200A      1.176293  
     201A      1.180800   202A      1.182052   203A      1.191858  
     204A      1.205878   205A      1.218648   206A      1.230213  
     207A      1.235630   208A      1.246879   209A      1.247090  
     210A      1.262516   211A      1.270398   212A      1.294214  
     213A      1.299425   214A      1.315883   215A      1.328666  
     216A      1.332026   217A      1.338257   218A      1.348771  
     219A      1.360498   220A      1.374093   221A      1.379057  
     222A      1.389331   223A      1.401488   224A      1.405645  
     225A      1.420947   226A      1.444606   227A      1.453580  
     228A      1.472806   229A      1.482631   230A      1.489753  
     231A      1.494349   232A      1.498579   233A      1.512391  
     234A      1.536431   235A      1.547160   236A      1.557137  
     237A      1.577633   238A      1.581761   239A      1.594680  
     240A      1.613062   241A      1.631273   242A      1.636285  
     243A      1.646292   244A      1.669168   245A      1.672547  
     246A      1.689058   247A      1.709934   248A      1.722675  
     249A      1.730299   250A      1.754948   251A      1.764672  
     252A      1.778467   253A      1.796734   254A      1.805204  
     255A      1.813480   256A      1.828593   257A      1.848853  
     258A      1.860312   259A      1.890387   260A      1.897194  
     261A      1.912937   262A      1.929728   263A      1.942692  
     264A      1.956319   265A      1.960016   266A      1.979648  
     267A      1.996552   268A      2.037411   269A      2.043324  
     270A      2.067244   271A      2.079808   272A      2.088286  
     273A      2.094998   274A      2.110902   275A      2.132439  
     276A      2.144236   277A      2.168353   278A      2.181511  
     279A      2.195944   280A      2.201918   281A      2.207142  
     282A      2.212831   283A      2.222084   284A      2.232307  
     285A      2.243221   286A      2.247126   287A      2.267055  
     288A      2.279314   289A      2.280934   290A      2.288263  
     291A      2.296790   292A      2.307345   293A      2.312878  
     294A      2.319709   295A      2.331698   296A      2.341329  
     297A      2.348388   298A      2.357010   299A      2.360945  
     300A      2.373403   301A      2.381477   302A      2.389593  
     303A      2.407066   304A      2.416884   305A      2.423868  
     306A      2.437181   307A      2.452849   308A      2.468632  
     309A      2.478871   310A      2.486170   311A      2.520797  
     312A      2.538127   313A      2.557450   314A      2.571523  
     315A      2.573306   316A      2.586980   317A      2.609771  
     318A      2.610364   319A      2.626735   320A      2.633506  
     321A      2.649690   322A      2.673922   323A      2.679831  
     324A      2.702982   325A      2.721791   326A      2.745127  
     327A      2.746862   328A      2.769349   329A      2.780261  
     330A      2.790069   331A      2.819757   332A      2.833452  
     333A      2.836713   334A      2.843318   335A      2.854219  
     336A      2.872348   337A      2.886997   338A      2.900450  
     339A      2.912100   340A      2.932641   341A      2.937036  
     342A      2.957792   343A      2.970101   344A      3.000814  
     345A      3.011047   346A      3.031601   347A      3.042599  
     348A      3.052845   349A      3.067075   350A      3.083892  
     351A      3.101104   352A      3.136714   353A      3.145165  
     354A      3.158327   355A      3.204591   356A      3.237238  
     357A      3.271802   358A      3.278686   359A      3.283864  
     360A      3.301612   361A      3.317010   362A      3.331015  
     363A      3.353637   364A      3.383745   365A      3.388196  
     366A      3.456817   367A      3.476106   368A      3.504818  
     369A      3.511928   370A      3.551692   371A      3.559118  
     372A      3.569721   373A      3.600637   374A      3.632535  
     375A      3.665647   376A      3.692461   377A      3.702654  
     378A      3.733719   379A      3.764540   380A      3.795713  
     381A      3.840297   382A      3.873971   383A      3.899703  
     384A      3.918940   385A      3.932975   386A      3.964010  
     387A      4.023945   388A      4.072517   389A      4.108530  
     390A      4.154838   391A      4.203355   392A      4.207119  
     393A      4.305652   394A      4.342532   395A      4.381836  
     396A      4.388186   397A      4.415474   398A      4.502203  
     399A      4.537089   400A      4.554721   401A      4.569565  
     402A      4.645452   403A      4.657427   404A      4.729438  
     405A      4.768330   406A      4.811436   407A      4.852496  
     408A      4.926638   409A      4.984675   410A      5.036780  
     411A      5.061343   412A      5.071719   413A      5.074901  
     414A      5.087348   415A      5.101153   416A      5.114760  
     417A      5.118984   418A      5.139527   419A      5.164166  
     420A      5.224013   421A      5.297594   422A      5.333623  
     423A      5.381346   424A      5.404546   425A      5.454720  
     426A      5.484283   427A      5.524110   428A      5.554628  
     429A      5.646087   430A      5.890248   431A      5.995105  
     432A      6.072504   433A      6.143493   434A      6.185041  
     435A      6.187639   436A      6.428944   437A      6.507828  
     438A      6.525654   439A      6.821085   440A      6.851294  
     441A      6.873563   442A      6.885570   443A      6.895396  
     444A      6.935205   445A      6.963173   446A      6.969194  
     447A      6.987618   448A      6.997278   449A      7.056674  
     450A      7.066104   451A      7.147659   452A      7.887675  
     453A      7.955984   454A      8.012997   455A      8.162487  
     456A      8.205477   457A      8.256585   458A     18.022027  
     459A     18.424194   460A     18.578207   461A     18.646123  
     462A     18.801144   463A     18.950043   464A     19.207018  
     465A     19.423044   466A     19.679599   467A     20.691981  
     468A     20.766167   469A     20.888558   470A     21.438187  
     471A     25.494328   472A     33.551373   473A     33.564654  
     474A     43.031027   475A     43.034556   476A    138.009354  

    Final Occupation by Irrep:
              A 
    DOCC [     5 ]

  @DF-RKS Final Energy:   -76.42056311796749

   => Energetics <=

    Nuclear Repulsion Energy =              9.1648915936037056
    One-Electron Energy =                -122.9482830769958497
    Two-Electron Energy =                  43.8359846569054739
    DFT Exchange-Correlation Energy =      -6.4731258693751661
    Empirical Dispersion Energy =          -0.0000304221056586
    VV10 Nonlocal Energy =                  0.0000000000000000
    Total Energy =                        -76.4205631179674754

Computation Completed


Properties will be evaluated at  -0.000000,  -0.000000,   0.000000 [a0]

Properties computed using the SCF density matrix

  Nuclear Dipole Moment: [e a0]
     X:   -44.6015      Y:     5.4645      Z:   -30.3522

  Electronic Dipole Moment: [e a0]
     X:    43.9603      Y:    -5.3279      Z:    30.0553

  Dipole Moment: [e a0]
     X:    -0.6412      Y:     0.1366      Z:    -0.2969     Total:     0.7197

  Dipole Moment: [D]
     X:    -1.6298      Y:     0.3473      Z:    -0.7547     Total:     1.8293


*** tstop() called on cpu-spot-dy-c5n2xlarge-1 at Tue Jun 22 17:11:54 2021
Module time:
	user time   =     599.26 seconds =       9.99 minutes
	system time =       6.85 seconds =       0.11 minutes
	total time  =         83 seconds =       1.38 minutes
Total time:
	user time   =     607.51 seconds =      10.13 minutes
	system time =       7.21 seconds =       0.12 minutes
	total time  =         84 seconds =       1.40 minutes

       N-Body: Complex Energy (fragments = (2,), basis = (1, 2):   -76.42056311796749)

       N-Body: Computing complex (3/4) with fragments (1,) in the basis of fragments (1, 2).


*** tstart() called on cpu-spot-dy-c5n2xlarge-1
*** at Tue Jun 22 17:11:54 2021

   => Loading Basis Set <=

    Name: AUG-CC-PVDZ
    Role: ORBITAL
    Keyword: BASIS
    atoms 1             entry N          line   214 file /fsx/users/francis/anaconda3/envs/poltype-dev/share/psi4/basis/aug-cc-pvdz.gbs 
    atoms 2-3, 6-12, 14 entry C          line   178 file /fsx/users/francis/anaconda3/envs/poltype-dev/share/psi4/basis/aug-cc-pvdz.gbs 
    atoms 4-5           entry F          line   286 file /fsx/users/francis/anaconda3/envs/poltype-dev/share/psi4/basis/aug-cc-pvdz.gbs 
    atoms 13            entry S          line   698 file /fsx/users/francis/anaconda3/envs/poltype-dev/share/psi4/basis/aug-cc-pvdz.gbs 
    atoms 15-16, 24     entry O          line   250 file /fsx/users/francis/anaconda3/envs/poltype-dev/share/psi4/basis/aug-cc-pvdz.gbs 
    atoms 17-23, 25-26  entry H          line    36 file /fsx/users/francis/anaconda3/envs/poltype-dev/share/psi4/basis/aug-cc-pvdz.gbs 


         ---------------------------------------------------------
                                   SCF
               by Justin Turney, Rob Parrish, Andy Simmonett
                          and Daniel G. A. Smith
                              RKS Reference
                        8 Threads,  15258 MiB Core
         ---------------------------------------------------------

  ==> Geometry <==

    Molecular point group: c1
    Full point group: C1

    Geometry (in Angstrom), charge = 0, multiplicity = 1:

       Center              X                  Y                   Z               Mass       
    ------------   -----------------  -----------------  -----------------  -----------------
         N           -0.718562714440    -1.531017542282     0.372937997748    14.003074004430
         C           -2.001444714440    -1.255143542282     0.772261997748    12.000000000000
         C           -2.314545714440     0.259810457718     0.993382997748    12.000000000000
         F           -3.641229714440     0.494757457718     0.682335997748    18.998403162730
         F           -2.159295714440     0.520218457718     2.336103997748    18.998403162730
         C           -1.405622714440     1.260856457718     0.197732997748    12.000000000000
         C           -0.049702714440     0.776397457718    -0.157343002252    12.000000000000
         C            0.898393285560     1.652717457718    -0.728305002252    12.000000000000
         C            2.185367285560     1.205693457718    -1.054635002252    12.000000000000
         C            2.542470285560    -0.151742542282    -0.846149002252    12.000000000000
         C            1.572451285560    -1.046130542282    -0.344414002252    12.000000000000
         C            0.279373285560    -0.602446542282    -0.019171002252    12.000000000000
         S            4.140707285560    -0.820809542282    -1.198863002252    31.972071174400
         C            5.100422285560    -0.415606542282     0.281781997748    12.000000000000
         O           -2.797704714440    -2.160386542282     0.984769997748    15.994914619570
         O           -1.762911714440     2.420876457718    -0.003703002252    15.994914619570
         H            2.900593285560     1.922399457718    -1.457289002252     1.007825032230
         H            0.607644285560     2.689875457718    -0.896454002252     1.007825032230
         H           -0.539141714440    -2.522699542282     0.299764997748     1.007825032230
         H            1.835512285560    -2.093028542282    -0.187872002252     1.007825032230
         H            5.168627285560     0.672061457718     0.382974997748     1.007825032230
         H            4.605467285560    -0.837809542282     1.162117997748     1.007825032230
         H            6.103663285560    -0.840773542282     0.184606997748     1.007825032230
      Gh(O)          -2.259221114440     0.267663657718    -1.559185402252    15.994914619570
      Gh(H)          -2.991219114440    -0.347894342282    -1.636775402252     1.007825032230
      Gh(H)          -2.537131114440     1.098273657718    -1.951435402252     1.007825032230

  Running in c1 symmetry.

  Rotational constants: A =      0.03029  B =      0.00781  C =      0.00712 [cm^-1]
  Rotational constants: A =    907.97436  B =    234.07127  C =    213.56849 [MHz]
  Nuclear repulsion = 1179.275772546458029

  Charge       = 0
  Multiplicity = 1
  Electrons    = 124
  Nalpha       = 62
  Nbeta        = 62

  ==> Algorithm <==

  SCF Algorithm Type is DF.
  DIIS enabled.
  MOM disabled.
  Fractional occupation disabled.
  Guess Type is SAD.
  Energy threshold   = 1.00e-06
  Density threshold  = 1.00e-06
  Integral threshold = 0.00e+00

  ==> Primary Basis <==

  Basis Set: AUG-CC-PVDZ
    Blend: AUG-CC-PVDZ
    Number of shells: 200
    Number of basis function: 476
    Number of Cartesian functions: 510
    Spherical Harmonics?: true
    Max angular momentum: 2

  ==> DFT Potential <==

   => Composite Functional: WB97X-D <= 

    wB97X-D Hyb-GGA Exchange-Correlation Functional

    J.-D. Chai and M. Head-Gordon, Phys. Chem. Chem. Phys. 10, 6615 (2008)

    Deriv               =              1
    GGA                 =           TRUE
    Meta                =          FALSE

    Exchange Hybrid     =           TRUE
    MP2 Hybrid          =          FALSE

   => Exchange-Correlation Functionals <=

    1.0000   wB97D range-separated functional

   => Exact (HF) Exchange <=

    0.7780            HF,LR [omega = 0.2000]
    0.2220               HF 

   => Molecular Quadrature <=

    Radial Scheme          =       TREUTLER
    Pruning Scheme         =           FLAT
    Nuclear Scheme         =       TREUTLER

    BS radius alpha        =              1
    Pruning alpha          =              1
    Radial Points          =             75
    Spherical Points       =            302
    Total Points           =         588900
    Total Blocks           =           4355
    Max Points             =            256
    Max Functions          =            436

   => WB97X-D: Empirical Dispersion <=

    Chai and Head-Gordon Dispersion Correction
    Chai, J.-D.; Head-Gordon, M. (2010), J. Chem. Phys., 132: 6615-6620

        s6 =       1.000000

   => Loading Basis Set <=

    Name: (AUG-CC-PVDZ AUX)
    Role: JKFIT
    Keyword: DF_BASIS_SCF
    atoms 1             entry N          line   212 file /fsx/users/francis/anaconda3/envs/poltype-dev/share/psi4/basis/aug-cc-pvdz-jkfit.gbs 
    atoms 2-3, 6-12, 14 entry C          line   154 file /fsx/users/francis/anaconda3/envs/poltype-dev/share/psi4/basis/aug-cc-pvdz-jkfit.gbs 
    atoms 4-5           entry F          line   328 file /fsx/users/francis/anaconda3/envs/poltype-dev/share/psi4/basis/aug-cc-pvdz-jkfit.gbs 
    atoms 13            entry S          line   690 file /fsx/users/francis/anaconda3/envs/poltype-dev/share/psi4/basis/aug-cc-pvdz-jkfit.gbs 
    atoms 15-16, 24     entry O          line   270 file /fsx/users/francis/anaconda3/envs/poltype-dev/share/psi4/basis/aug-cc-pvdz-jkfit.gbs 
    atoms 17-23, 25-26  entry H          line    70 file /fsx/users/francis/anaconda3/envs/poltype-dev/share/psi4/basis/aug-cc-pvdz-jkfit.gbs 

  ==> Pre-Iterations <==

   -------------------------------------------------------
    Irrep   Nso     Nmo     Nalpha   Nbeta   Ndocc  Nsocc
   -------------------------------------------------------
     A        476     476       0       0       0       0
   -------------------------------------------------------
    Total     476     476      62      62      62       0
   -------------------------------------------------------

  ==> Integral Setup <==

  ==> DiskDFJK: Density-Fitted J/K Matrices <==

    J tasked:                  Yes
    K tasked:                  Yes
    wK tasked:                 Yes
    Omega:               2.000E-01
    OpenMP threads:              8
    Integrals threads:           8
    Memory [MiB]:             5769
    Algorithm:                Core
    Integral Cache:           NONE
    Schwarz Cutoff:          1E-12
    Fitting Condition:       1E-10

   => Auxiliary Basis Set <=

  Basis Set: (AUG-CC-PVDZ AUX)
    Blend: AUG-CC-PVDZ-JKFIT
    Number of shells: 596
    Number of basis function: 1792
    Number of Cartesian functions: 2081
    Spherical Harmonics?: true
    Max angular momentum: 3

  Cached 100.0% of DFT collocation blocks in 5.541 [GiB].

  Minimum eigenvalue in the overlap matrix is 1.4580245773E-06.
  Using Symmetric Orthogonalization.

  SCF Guess: Superposition of Atomic Densities via on-the-fly atomic UHF.

  ==> Iterations <==

                           Total Energy        Delta E     RMS |[F,P]|

   @DF-RKS iter SAD: -1187.38980236534485   -1.18739e+03   0.00000e+00 
   @DF-RKS iter   1: -1187.69238388019835   -3.02582e-01   2.21137e-03 DIIS
   @DF-RKS iter   2: -1187.69987257050639   -7.48869e-03   2.40451e-03 DIIS
   @DF-RKS iter   3: -1188.17480800477847   -4.74935e-01   5.69265e-04 DIIS
   @DF-RKS iter   4: -1188.20331393371748   -2.85059e-02   1.48410e-04 DIIS
   @DF-RKS iter   5: -1188.20550478122141   -2.19085e-03   4.24852e-05 DIIS
   @DF-RKS iter   6: -1188.20572420565600   -2.19424e-04   1.44917e-05 DIIS
   @DF-RKS iter   7: -1188.20574942796020   -2.52223e-05   4.41768e-06 DIIS
   @DF-RKS iter   8: -1188.20575383717710   -4.40922e-06   1.62209e-06 DIIS
   @DF-RKS iter   9: -1188.20575485365885   -1.01648e-06   1.06256e-06 DIIS
   @DF-RKS iter  10: -1188.20575508513730   -2.31478e-07   3.60198e-07 DIIS
  Energy and wave function converged.


  ==> Post-Iterations <==

    Orbital Energies [Eh]
    ---------------------

    Doubly Occupied:                                                      

       1A    -89.069692     2A    -24.880719     3A    -24.867665  
       4A    -19.305126     5A    -19.288549     6A    -14.536414  
       7A    -10.509372     8A    -10.455545     9A    -10.436623  
      10A    -10.407651    11A    -10.378796    12A    -10.356841  
      13A    -10.352304    14A    -10.350004    15A    -10.345584  
      16A    -10.343957    17A     -8.087185    18A     -6.037058  
      19A     -6.032936    20A     -6.025950    21A     -1.385482  
      22A     -1.326587    23A     -1.190175    24A     -1.179714  
      25A     -1.093658    26A     -1.000522    27A     -0.938531  
      28A     -0.904105    29A     -0.888651    30A     -0.866765  
      31A     -0.792430    32A     -0.765558    33A     -0.752139  
      34A     -0.739929    35A     -0.696042    36A     -0.677374  
      37A     -0.668460    38A     -0.643262    39A     -0.628973  
      40A     -0.591259    41A     -0.580093    42A     -0.569062  
      43A     -0.562644    44A     -0.557709    45A     -0.555386  
      46A     -0.547856    47A     -0.539421    48A     -0.533406  
      49A     -0.527426    50A     -0.516190    51A     -0.512541  
      52A     -0.500670    53A     -0.494180    54A     -0.480661  
      55A     -0.473997    56A     -0.441115    57A     -0.420482  
      58A     -0.398132    59A     -0.372079    60A     -0.367807  
      61A     -0.340098    62A     -0.332764  

    Virtual:                                                              

      63A     -0.057420    64A      0.006672    65A      0.023850  
      66A      0.032336    67A      0.036084    68A      0.039907  
      69A      0.049152    70A      0.051804    71A      0.058129  
      72A      0.060708    73A      0.066127    74A      0.075894  
      75A      0.076556    76A      0.084909    77A      0.089514  
      78A      0.091651    79A      0.099799    80A      0.106931  
      81A      0.108001    82A      0.112317    83A      0.116141  
      84A      0.118986    85A      0.126194    86A      0.126593  
      87A      0.132261    88A      0.135478    89A      0.135883  
      90A      0.141802    91A      0.147402    92A      0.148373  
      93A      0.153157    94A      0.155637    95A      0.164699  
      96A      0.166165    97A      0.168303    98A      0.170131  
      99A      0.175870   100A      0.176549   101A      0.179692  
     102A      0.183491   103A      0.189187   104A      0.193300  
     105A      0.196971   106A      0.202841   107A      0.206182  
     108A      0.208808   109A      0.216521   110A      0.217741  
     111A      0.222049   112A      0.231019   113A      0.233926  
     114A      0.235553   115A      0.237864   116A      0.244348  
     117A      0.246851   118A      0.252497   119A      0.254913  
     120A      0.259444   121A      0.262596   122A      0.265947  
     123A      0.271061   124A      0.275192   125A      0.277056  
     126A      0.277254   127A      0.285126   128A      0.286846  
     129A      0.290093   130A      0.294132   131A      0.297872  
     132A      0.302610   133A      0.303787   134A      0.309470  
     135A      0.315542   136A      0.318163   137A      0.320869  
     138A      0.327970   139A      0.332447   140A      0.338044  
     141A      0.342815   142A      0.346060   143A      0.347211  
     144A      0.356705   145A      0.361658   146A      0.362924  
     147A      0.367430   148A      0.369367   149A      0.373022  
     150A      0.379009   151A      0.381530   152A      0.384221  
     153A      0.390250   154A      0.395308   155A      0.398747  
     156A      0.402120   157A      0.408641   158A      0.412283  
     159A      0.414414   160A      0.417785   161A      0.427180  
     162A      0.429557   163A      0.432914   164A      0.435605  
     165A      0.446261   166A      0.449853   167A      0.457271  
     168A      0.467542   169A      0.474734   170A      0.480389  
     171A      0.482474   172A      0.486890   173A      0.489189  
     174A      0.495561   175A      0.499445   176A      0.504036  
     177A      0.509456   178A      0.518122   179A      0.522071  
     180A      0.526427   181A      0.530432   182A      0.533776  
     183A      0.539943   184A      0.540835   185A      0.544820  
     186A      0.554418   187A      0.558307   188A      0.568295  
     189A      0.574795   190A      0.578570   191A      0.581071  
     192A      0.588676   193A      0.597329   194A      0.599816  
     195A      0.603415   196A      0.609642   197A      0.611981  
     198A      0.613758   199A      0.623282   200A      0.625588  
     201A      0.628305   202A      0.634714   203A      0.638518  
     204A      0.642566   205A      0.649854   206A      0.653316  
     207A      0.660832   208A      0.663290   209A      0.667133  
     210A      0.669789   211A      0.677173   212A      0.683238  
     213A      0.690659   214A      0.698582   215A      0.700407  
     216A      0.701296   217A      0.709480   218A      0.712866  
     219A      0.716657   220A      0.718690   221A      0.731549  
     222A      0.746558   223A      0.752589   224A      0.754370  
     225A      0.758679   226A      0.767713   227A      0.769766  
     228A      0.778340   229A      0.786108   230A      0.792444  
     231A      0.801952   232A      0.809343   233A      0.814773  
     234A      0.817888   235A      0.824959   236A      0.826601  
     237A      0.828189   238A      0.834997   239A      0.843941  
     240A      0.850477   241A      0.850960   242A      0.858040  
     243A      0.863535   244A      0.881799   245A      0.889645  
     246A      0.897194   247A      0.904201   248A      0.907162  
     249A      0.918688   250A      0.931189   251A      0.936316  
     252A      0.943903   253A      0.950067   254A      0.956139  
     255A      0.967157   256A      0.974108   257A      0.990275  
     258A      0.999039   259A      1.003098   260A      1.011520  
     261A      1.012610   262A      1.028659   263A      1.033232  
     264A      1.042856   265A      1.067073   266A      1.069408  
     267A      1.076124   268A      1.085540   269A      1.103769  
     270A      1.106718   271A      1.110420   272A      1.117476  
     273A      1.134538   274A      1.140322   275A      1.147983  
     276A      1.152832   277A      1.163894   278A      1.175445  
     279A      1.178322   280A      1.186285   281A      1.202657  
     282A      1.208233   283A      1.219387   284A      1.234514  
     285A      1.236810   286A      1.252346   287A      1.258283  
     288A      1.273403   289A      1.286595   290A      1.291393  
     291A      1.309477   292A      1.312366   293A      1.317669  
     294A      1.324044   295A      1.331302   296A      1.337641  
     297A      1.355517   298A      1.362830   299A      1.369280  
     300A      1.375142   301A      1.391165   302A      1.394547  
     303A      1.409934   304A      1.415960   305A      1.422748  
     306A      1.430593   307A      1.440684   308A      1.448756  
     309A      1.463687   310A      1.475881   311A      1.478553  
     312A      1.492364   313A      1.498308   314A      1.505819  
     315A      1.516179   316A      1.531138   317A      1.537551  
     318A      1.548199   319A      1.555815   320A      1.556617  
     321A      1.567218   322A      1.572014   323A      1.578474  
     324A      1.597571   325A      1.602188   326A      1.608308  
     327A      1.611808   328A      1.618514   329A      1.626205  
     330A      1.634214   331A      1.638538   332A      1.655797  
     333A      1.665317   334A      1.674447   335A      1.687503  
     336A      1.696011   337A      1.697378   338A      1.709887  
     339A      1.712350   340A      1.722115   341A      1.736537  
     342A      1.744260   343A      1.752029   344A      1.761312  
     345A      1.770810   346A      1.778366   347A      1.793222  
     348A      1.799252   349A      1.807933   350A      1.828543  
     351A      1.830650   352A      1.836052   353A      1.854067  
     354A      1.863163   355A      1.870079   356A      1.879989  
     357A      1.889666   358A      1.896294   359A      1.900903  
     360A      1.908418   361A      1.923449   362A      1.931431  
     363A      1.944625   364A      1.957467   365A      1.964061  
     366A      1.975246   367A      1.980717   368A      1.995326  
     369A      2.003176   370A      2.016388   371A      2.025093  
     372A      2.041301   373A      2.050453   374A      2.058442  
     375A      2.062433   376A      2.082900   377A      2.094061  
     378A      2.103221   379A      2.107180   380A      2.126183  
     381A      2.132014   382A      2.148922   383A      2.155112  
     384A      2.172717   385A      2.180971   386A      2.193698  
     387A      2.205922   388A      2.212756   389A      2.223482  
     390A      2.229540   391A      2.245917   392A      2.266822  
     393A      2.279412   394A      2.294099   395A      2.317556  
     396A      2.329972   397A      2.336860   398A      2.349203  
     399A      2.353085   400A      2.357916   401A      2.374360  
     402A      2.392049   403A      2.417805   404A      2.422073  
     405A      2.438430   406A      2.456832   407A      2.490465  
     408A      2.498673   409A      2.522678   410A      2.559469  
     411A      2.586727   412A      2.592325   413A      2.609259  
     414A      2.611753   415A      2.629686   416A      2.660121  
     417A      2.672128   418A      2.681480   419A      2.696580  
     420A      2.704153   421A      2.709730   422A      2.717789  
     423A      2.742555   424A      2.765414   425A      2.771134  
     426A      2.830935   427A      2.867073   428A      2.952463  
     429A      2.968857   430A      3.018913   431A      3.032248  
     432A      3.063411   433A      3.128146   434A      3.213816  
     435A      3.267165   436A      3.380796   437A      3.393722  
     438A      3.432665   439A      3.459922   440A      3.473141  
     441A      3.506147   442A      3.527862   443A      3.543142  
     444A      3.574346   445A      3.582921   446A      3.618435  
     447A      3.644870   448A      3.720683   449A      3.743124  
     450A      3.761531   451A      3.832866   452A      3.877315  
     453A      3.939439   454A      3.963322   455A      4.295991  
     456A      4.453514   457A      4.551892   458A      4.642023  
     459A      4.676632   460A      4.726603   461A      4.729966  
     462A      4.765000   463A      4.779988   464A      4.799582  
     465A      4.828181   466A      4.899941   467A      4.913809  
     468A      5.087703   469A      5.104664   470A      5.157984  
     471A      5.357569   472A      5.764818   473A      6.150681  
     474A      6.800568   475A      7.094435   476A     33.572674  

    Final Occupation by Irrep:
              A 
    DOCC [    62 ]

  @DF-RKS Final Energy: -1188.20575508513730

   => Energetics <=

    Nuclear Repulsion Energy =           1179.2757725464580290
    One-Electron Energy =               -3972.9836549964716141
    Two-Electron Energy =                1695.0526472391622974
    DFT Exchange-Correlation Energy =     -89.5370233006714216
    Empirical Dispersion Energy =          -0.0134965736146370
    VV10 Nonlocal Energy =                  0.0000000000000000
    Total Energy =                      -1188.2057550851372980

Computation Completed


Properties will be evaluated at  -0.000000,  -0.000000,   0.000000 [a0]

Properties computed using the SCF density matrix

  Nuclear Dipole Moment: [e a0]
     X:    64.3585      Y:    -6.6800      Z:    23.6253

  Electronic Dipole Moment: [e a0]
     X:   -61.8200      Y:     6.3089      Z:   -23.8382

  Dipole Moment: [e a0]
     X:     2.5385      Y:    -0.3711      Z:    -0.2129     Total:     2.5743

  Dipole Moment: [D]
     X:     6.4522      Y:    -0.9433      Z:    -0.5412     Total:     6.5432


*** tstop() called on cpu-spot-dy-c5n2xlarge-1 at Tue Jun 22 17:14:01 2021
Module time:
	user time   =     940.32 seconds =      15.67 minutes
	system time =       8.81 seconds =       0.15 minutes
	total time  =        127 seconds =       2.12 minutes
Total time:
	user time   =    1547.86 seconds =      25.80 minutes
	system time =      16.02 seconds =       0.27 minutes
	total time  =        211 seconds =       3.52 minutes

       N-Body: Complex Energy (fragments = (1,), basis = (1, 2): -1188.20575508513730)

       N-Body: Computing complex (4/4) with fragments (1,) in the basis of fragments (1,).


*** tstart() called on cpu-spot-dy-c5n2xlarge-1
*** at Tue Jun 22 17:14:01 2021

   => Loading Basis Set <=

    Name: AUG-CC-PVDZ
    Role: ORBITAL
    Keyword: BASIS
    atoms 1             entry N          line   214 file /fsx/users/francis/anaconda3/envs/poltype-dev/share/psi4/basis/aug-cc-pvdz.gbs 
    atoms 2-3, 6-12, 14 entry C          line   178 file /fsx/users/francis/anaconda3/envs/poltype-dev/share/psi4/basis/aug-cc-pvdz.gbs 
    atoms 4-5           entry F          line   286 file /fsx/users/francis/anaconda3/envs/poltype-dev/share/psi4/basis/aug-cc-pvdz.gbs 
    atoms 13            entry S          line   698 file /fsx/users/francis/anaconda3/envs/poltype-dev/share/psi4/basis/aug-cc-pvdz.gbs 
    atoms 15-16         entry O          line   250 file /fsx/users/francis/anaconda3/envs/poltype-dev/share/psi4/basis/aug-cc-pvdz.gbs 
    atoms 17-23         entry H          line    36 file /fsx/users/francis/anaconda3/envs/poltype-dev/share/psi4/basis/aug-cc-pvdz.gbs 


         ---------------------------------------------------------
                                   SCF
               by Justin Turney, Rob Parrish, Andy Simmonett
                          and Daniel G. A. Smith
                              RKS Reference
                        8 Threads,  15258 MiB Core
         ---------------------------------------------------------

  ==> Geometry <==

    Molecular point group: c1
    Full point group: C1

    Geometry (in Angstrom), charge = 0, multiplicity = 1:

       Center              X                  Y                   Z               Mass       
    ------------   -----------------  -----------------  -----------------  -----------------
         N           -0.718562714440    -1.531017542282     0.372937997748    14.003074004430
         C           -2.001444714440    -1.255143542282     0.772261997748    12.000000000000
         C           -2.314545714440     0.259810457718     0.993382997748    12.000000000000
         F           -3.641229714440     0.494757457718     0.682335997748    18.998403162730
         F           -2.159295714440     0.520218457718     2.336103997748    18.998403162730
         C           -1.405622714440     1.260856457718     0.197732997748    12.000000000000
         C           -0.049702714440     0.776397457718    -0.157343002252    12.000000000000
         C            0.898393285560     1.652717457718    -0.728305002252    12.000000000000
         C            2.185367285560     1.205693457718    -1.054635002252    12.000000000000
         C            2.542470285560    -0.151742542282    -0.846149002252    12.000000000000
         C            1.572451285560    -1.046130542282    -0.344414002252    12.000000000000
         C            0.279373285560    -0.602446542282    -0.019171002252    12.000000000000
         S            4.140707285560    -0.820809542282    -1.198863002252    31.972071174400
         C            5.100422285560    -0.415606542282     0.281781997748    12.000000000000
         O           -2.797704714440    -2.160386542282     0.984769997748    15.994914619570
         O           -1.762911714440     2.420876457718    -0.003703002252    15.994914619570
         H            2.900593285560     1.922399457718    -1.457289002252     1.007825032230
         H            0.607644285560     2.689875457718    -0.896454002252     1.007825032230
         H           -0.539141714440    -2.522699542282     0.299764997748     1.007825032230
         H            1.835512285560    -2.093028542282    -0.187872002252     1.007825032230
         H            5.168627285560     0.672061457718     0.382974997748     1.007825032230
         H            4.605467285560    -0.837809542282     1.162117997748     1.007825032230
         H            6.103663285560    -0.840773542282     0.184606997748     1.007825032230

  Running in c1 symmetry.

  Rotational constants: A =      0.03538  B =      0.00834  C =      0.00735 [cm^-1]
  Rotational constants: A =   1060.54635  B =    249.91978  C =    220.37717 [MHz]
  Nuclear repulsion = 1179.275772546458029

  Charge       = 0
  Multiplicity = 1
  Electrons    = 124
  Nalpha       = 62
  Nbeta        = 62

  ==> Algorithm <==

  SCF Algorithm Type is DF.
  DIIS enabled.
  MOM disabled.
  Fractional occupation disabled.
  Guess Type is SAD.
  Energy threshold   = 1.00e-06
  Density threshold  = 1.00e-06
  Integral threshold = 0.00e+00

  ==> Primary Basis <==

  Basis Set: AUG-CC-PVDZ
    Blend: AUG-CC-PVDZ
    Number of shells: 181
    Number of basis function: 435
    Number of Cartesian functions: 467
    Spherical Harmonics?: true
    Max angular momentum: 2

  ==> DFT Potential <==

   => Composite Functional: WB97X-D <= 

    wB97X-D Hyb-GGA Exchange-Correlation Functional

    J.-D. Chai and M. Head-Gordon, Phys. Chem. Chem. Phys. 10, 6615 (2008)

    Deriv               =              1
    GGA                 =           TRUE
    Meta                =          FALSE

    Exchange Hybrid     =           TRUE
    MP2 Hybrid          =          FALSE

   => Exchange-Correlation Functionals <=

    1.0000   wB97D range-separated functional

   => Exact (HF) Exchange <=

    0.7780            HF,LR [omega = 0.2000]
    0.2220               HF 

   => Molecular Quadrature <=

    Radial Scheme          =       TREUTLER
    Pruning Scheme         =           FLAT
    Nuclear Scheme         =       TREUTLER

    BS radius alpha        =              1
    Pruning alpha          =              1
    Radial Points          =             75
    Spherical Points       =            302
    Total Points           =         520950
    Total Blocks           =           3881
    Max Points             =            256
    Max Functions          =            395

   => WB97X-D: Empirical Dispersion <=

    Chai and Head-Gordon Dispersion Correction
    Chai, J.-D.; Head-Gordon, M. (2010), J. Chem. Phys., 132: 6615-6620

        s6 =       1.000000

   => Loading Basis Set <=

    Name: (AUG-CC-PVDZ AUX)
    Role: JKFIT
    Keyword: DF_BASIS_SCF
    atoms 1             entry N          line   212 file /fsx/users/francis/anaconda3/envs/poltype-dev/share/psi4/basis/aug-cc-pvdz-jkfit.gbs 
    atoms 2-3, 6-12, 14 entry C          line   154 file /fsx/users/francis/anaconda3/envs/poltype-dev/share/psi4/basis/aug-cc-pvdz-jkfit.gbs 
    atoms 4-5           entry F          line   328 file /fsx/users/francis/anaconda3/envs/poltype-dev/share/psi4/basis/aug-cc-pvdz-jkfit.gbs 
    atoms 13            entry S          line   690 file /fsx/users/francis/anaconda3/envs/poltype-dev/share/psi4/basis/aug-cc-pvdz-jkfit.gbs 
    atoms 15-16         entry O          line   270 file /fsx/users/francis/anaconda3/envs/poltype-dev/share/psi4/basis/aug-cc-pvdz-jkfit.gbs 
    atoms 17-23         entry H          line    70 file /fsx/users/francis/anaconda3/envs/poltype-dev/share/psi4/basis/aug-cc-pvdz-jkfit.gbs 

  ==> Pre-Iterations <==

   -------------------------------------------------------
    Irrep   Nso     Nmo     Nalpha   Nbeta   Ndocc  Nsocc
   -------------------------------------------------------
     A        435     435       0       0       0       0
   -------------------------------------------------------
    Total     435     435      62      62      62       0
   -------------------------------------------------------

  ==> Integral Setup <==

  ==> DiskDFJK: Density-Fitted J/K Matrices <==

    J tasked:                  Yes
    K tasked:                  Yes
    wK tasked:                 Yes
    Omega:               2.000E-01
    OpenMP threads:              8
    Integrals threads:           8
    Memory [MiB]:             6784
    Algorithm:                Core
    Integral Cache:           NONE
    Schwarz Cutoff:          1E-12
    Fitting Condition:       1E-10

   => Auxiliary Basis Set <=

  Basis Set: (AUG-CC-PVDZ AUX)
    Blend: AUG-CC-PVDZ-JKFIT
    Number of shells: 544
    Number of basis function: 1642
    Number of Cartesian functions: 1910
    Spherical Harmonics?: true
    Max angular momentum: 3

  Cached 100.0% of DFT collocation blocks in 4.551 [GiB].

  Minimum eigenvalue in the overlap matrix is 1.5480650925E-06.
  Using Symmetric Orthogonalization.

  SCF Guess: Superposition of Atomic Densities via on-the-fly atomic UHF.

  ==> Iterations <==

                           Total Energy        Delta E     RMS |[F,P]|

   @DF-RKS iter SAD: -1187.38996965396677   -1.18739e+03   0.00000e+00 
   @DF-RKS iter   1: -1187.69144350419629   -3.01474e-01   2.41780e-03 DIIS
   @DF-RKS iter   2: -1187.69865148279018   -7.20798e-03   2.63069e-03 DIIS
   @DF-RKS iter   3: -1188.17393238026557   -4.75281e-01   6.22166e-04 DIIS
   @DF-RKS iter   4: -1188.20239910204396   -2.84667e-02   1.62012e-04 DIIS
   @DF-RKS iter   5: -1188.20458156204813   -2.18246e-03   4.64543e-05 DIIS
   @DF-RKS iter   6: -1188.20480079650702   -2.19234e-04   1.58368e-05 DIIS
   @DF-RKS iter   7: -1188.20482595198609   -2.51555e-05   4.82217e-06 DIIS
   @DF-RKS iter   8: -1188.20483034607173   -4.39409e-06   1.77025e-06 DIIS
   @DF-RKS iter   9: -1188.20483135994209   -1.01387e-06   1.15904e-06 DIIS
   @DF-RKS iter  10: -1188.20483159032415   -2.30382e-07   3.93348e-07 DIIS
  Energy and wave function converged.


  ==> Post-Iterations <==

    Orbital Energies [Eh]
    ---------------------

    Doubly Occupied:                                                      

       1A    -89.069695     2A    -24.880627     3A    -24.867486  
       4A    -19.304898     5A    -19.288491     6A    -14.536511  
       7A    -10.509538     8A    -10.455625     9A    -10.436868  
      10A    -10.407778    11A    -10.378875    12A    -10.356934  
      13A    -10.352437    14A    -10.350077    15A    -10.345622  
      16A    -10.344024    17A     -8.087204    18A     -6.037074  
      19A     -6.032957    20A     -6.025969    21A     -1.385632  
      22A     -1.326720    23A     -1.190247    24A     -1.179857  
      25A     -1.093739    26A     -1.000603    27A     -0.938615  
      28A     -0.904197    29A     -0.888733    30A     -0.866846  
      31A     -0.792509    32A     -0.765637    33A     -0.752232  
      34A     -0.740011    35A     -0.696155    36A     -0.677469  
      37A     -0.668550    38A     -0.643343    39A     -0.629075  
      40A     -0.591354    41A     -0.580182    42A     -0.569144  
      43A     -0.562716    44A     -0.557782    45A     -0.555471  
      46A     -0.547944    47A     -0.539503    48A     -0.533458  
      49A     -0.527491    50A     -0.516272    51A     -0.512616  
      52A     -0.500746    53A     -0.494257    54A     -0.480736  
      55A     -0.474089    56A     -0.441169    57A     -0.420531  
      58A     -0.398213    59A     -0.372164    60A     -0.367855  
      61A     -0.340143    62A     -0.332802  

    Virtual:                                                              

      63A     -0.057539    64A      0.006634    65A      0.024089  
      66A      0.032491    67A      0.036310    68A      0.040647  
      69A      0.049285    70A      0.057532    71A      0.058895  
      72A      0.064333    73A      0.073218    74A      0.076345  
      75A      0.083113    76A      0.090135    77A      0.093024  
      78A      0.101082    79A      0.106593    80A      0.109871  
      81A      0.111688    82A      0.115615    83A      0.119788  
      84A      0.124368    85A      0.129654    86A      0.133408  
      87A      0.136245    88A      0.137864    89A      0.146337  
      90A      0.149598    91A      0.155298    92A      0.157819  
      93A      0.159817    94A      0.165561    95A      0.168835  
      96A      0.171706    97A      0.173544    98A      0.175331  
      99A      0.181338   100A      0.182748   101A      0.187765  
     102A      0.192226   103A      0.198473   104A      0.203506  
     105A      0.210081   106A      0.212756   107A      0.216536  
     108A      0.220835   109A      0.226078   110A      0.230491  
     111A      0.232670   112A      0.235451   113A      0.239449  
     114A      0.246518   115A      0.249069   116A      0.253069  
     117A      0.256148   118A      0.258402   119A      0.262984  
     120A      0.268737   121A      0.270972   122A      0.278877  
     123A      0.280799   124A      0.281544   125A      0.288087  
     126A      0.294937   127A      0.296870   128A      0.301065  
     129A      0.304765   130A      0.308123   131A      0.310870  
     132A      0.321903   133A      0.324726   134A      0.325615  
     135A      0.328963   136A      0.336601   137A      0.339549  
     138A      0.344656   139A      0.348341   140A      0.354444  
     141A      0.358933   142A      0.366450   143A      0.368650  
     144A      0.371651   145A      0.375498   146A      0.379934  
     147A      0.383235   148A      0.385027   149A      0.391042  
     150A      0.395174   151A      0.402265   152A      0.405969  
     153A      0.411463   154A      0.414121   155A      0.416614  
     156A      0.422016   157A      0.432333   158A      0.435115  
     159A      0.440074   160A      0.447395   161A      0.452272  
     162A      0.460882   163A      0.464352   164A      0.471698  
     165A      0.480750   166A      0.484500   167A      0.488211  
     168A      0.491084   169A      0.499808   170A      0.503416  
     171A      0.513355   172A      0.516336   173A      0.521699  
     174A      0.529146   175A      0.535673   176A      0.539333  
     177A      0.539955   178A      0.543330   179A      0.552104  
     180A      0.562807   181A      0.568117   182A      0.574041  
     183A      0.580834   184A      0.589382   185A      0.595774  
     186A      0.599355   187A      0.603037   188A      0.614363  
     189A      0.615826   190A      0.619754   191A      0.624585  
     192A      0.635609   193A      0.635976   194A      0.638275  
     195A      0.644983   196A      0.652429   197A      0.658001  
     198A      0.665030   199A      0.666567   200A      0.670915  
     201A      0.673555   202A      0.679818   203A      0.690435  
     204A      0.693929   205A      0.697771   206A      0.701752  
     207A      0.707968   208A      0.719986   209A      0.728324  
     210A      0.734477   211A      0.741991   212A      0.749472  
     213A      0.751227   214A      0.759438   215A      0.764539  
     216A      0.768591   217A      0.774918   218A      0.778869  
     219A      0.791014   220A      0.798696   221A      0.806544  
     222A      0.808167   223A      0.813872   224A      0.818862  
     225A      0.825508   226A      0.837842   227A      0.841235  
     228A      0.844355   229A      0.850855   230A      0.854454  
     231A      0.858826   232A      0.873618   233A      0.883783  
     234A      0.893462   235A      0.905079   236A      0.910092  
     237A      0.918747   238A      0.934281   239A      0.939877  
     240A      0.942463   241A      0.951953   242A      0.970035  
     243A      0.976133   244A      0.990573   245A      0.995014  
     246A      1.005916   247A      1.011754   248A      1.022891  
     249A      1.036012   250A      1.042153   251A      1.056583  
     252A      1.069103   253A      1.073208   254A      1.078849  
     255A      1.095839   256A      1.099734   257A      1.102044  
     258A      1.110343   259A      1.129867   260A      1.137468  
     261A      1.146675   262A      1.147447   263A      1.164488  
     264A      1.176027   265A      1.187696   266A      1.192419  
     267A      1.214498   268A      1.221412   269A      1.225834  
     270A      1.242214   271A      1.265017   272A      1.273788  
     273A      1.274821   274A      1.285163   275A      1.295352  
     276A      1.298573   277A      1.313880   278A      1.325169  
     279A      1.344832   280A      1.351528   281A      1.354032  
     282A      1.359277   283A      1.365686   284A      1.384047  
     285A      1.391606   286A      1.400362   287A      1.411153  
     288A      1.413543   289A      1.430855   290A      1.446555  
     291A      1.458848   292A      1.470127   293A      1.476579  
     294A      1.487980   295A      1.498774   296A      1.504445  
     297A      1.521001   298A      1.529778   299A      1.538646  
     300A      1.547543   301A      1.554952   302A      1.557285  
     303A      1.565227   304A      1.578020   305A      1.580163  
     306A      1.595093   307A      1.601547   308A      1.608819  
     309A      1.610041   310A      1.623606   311A      1.627887  
     312A      1.633556   313A      1.640420   314A      1.658653  
     315A      1.659490   316A      1.672858   317A      1.682530  
     318A      1.696682   319A      1.700407   320A      1.715738  
     321A      1.728997   322A      1.734152   323A      1.750412  
     324A      1.755550   325A      1.763194   326A      1.764970  
     327A      1.781230   328A      1.788256   329A      1.803801  
     330A      1.820003   331A      1.823008   332A      1.841481  
     333A      1.846253   334A      1.857772   335A      1.869205  
     336A      1.871879   337A      1.882706   338A      1.898238  
     339A      1.902729   340A      1.908758   341A      1.918874  
     342A      1.933982   343A      1.946538   344A      1.952933  
     345A      1.965957   346A      1.975515   347A      1.986521  
     348A      1.989722   349A      2.002177   350A      2.017311  
     351A      2.032539   352A      2.034103   353A      2.053110  
     354A      2.060472   355A      2.074498   356A      2.080160  
     357A      2.088152   358A      2.101580   359A      2.124650  
     360A      2.129248   361A      2.142645   362A      2.168289  
     363A      2.172629   364A      2.177034   365A      2.195092  
     366A      2.204816   367A      2.218780   368A      2.223559  
     369A      2.232143   370A      2.282419   371A      2.286457  
     372A      2.312298   373A      2.320872   374A      2.331626  
     375A      2.336898   376A      2.345444   377A      2.353496  
     378A      2.362952   379A      2.385755   380A      2.405089  
     381A      2.408609   382A      2.442141   383A      2.478000  
     384A      2.484211   385A      2.514362   386A      2.543950  
     387A      2.577336   388A      2.597594   389A      2.612913  
     390A      2.629783   391A      2.659679   392A      2.666752  
     393A      2.682564   394A      2.694432   395A      2.709288  
     396A      2.734258   397A      2.746723   398A      2.775865  
     399A      2.848651   400A      2.939492   401A      2.955385  
     402A      3.005376   403A      3.022555   404A      3.090217  
     405A      3.129275   406A      3.160142   407A      3.357436  
     408A      3.367587   409A      3.374190   410A      3.423142  
     411A      3.461030   412A      3.475193   413A      3.496657  
     414A      3.502656   415A      3.536090   416A      3.554376  
     417A      3.564954   418A      3.597610   419A      3.686254  
     420A      3.713133   421A      3.738540   422A      3.790803  
     423A      3.861478   424A      3.923811   425A      4.444428  
     426A      4.629291   427A      4.656729   428A      4.692442  
     429A      4.720852   430A      4.743466   431A      4.753958  
     432A      4.778584   433A      4.810862   434A      4.858615  
     435A      4.901340  

    Final Occupation by Irrep:
              A 
    DOCC [    62 ]

  @DF-RKS Final Energy: -1188.20483159032415

   => Energetics <=

    Nuclear Repulsion Energy =           1179.2757725464580290
    One-Electron Energy =               -3972.9736866084176654
    Two-Electron Energy =                1695.0431153269064453
    DFT Exchange-Correlation Energy =     -89.5365362816561401
    Empirical Dispersion Energy =          -0.0134965736146370
    VV10 Nonlocal Energy =                  0.0000000000000000
    Total Energy =                      -1188.2048315903239200

Computation Completed


Properties will be evaluated at   0.324324,  -0.039172,   0.222050 [a0]

Properties computed using the SCF density matrix

  Nuclear Dipole Moment: [e a0]
     X:    24.1424      Y:    -1.8227      Z:    -3.9089

  Electronic Dipole Moment: [e a0]
     X:   -21.6012      Y:     1.4510      Z:     3.6954

  Dipole Moment: [e a0]
     X:     2.5411      Y:    -0.3716      Z:    -0.2135     Total:     2.5770

  Dipole Moment: [D]
     X:     6.4589      Y:    -0.9446      Z:    -0.5427     Total:     6.5501


*** tstop() called on cpu-spot-dy-c5n2xlarge-1 at Tue Jun 22 17:15:36 2021
Module time:
	user time   =     710.99 seconds =      11.85 minutes
	system time =       7.38 seconds =       0.12 minutes
	total time  =         95 seconds =       1.58 minutes
Total time:
	user time   =    2258.90 seconds =      37.65 minutes
	system time =      23.40 seconds =       0.39 minutes
	total time  =        306 seconds =       5.10 minutes

       N-Body: Complex Energy (fragments = (1,), basis = (1,): -1188.20483159032415)

   ==> N-Body: Now computing 2-body complexes <==


       N-Body: Computing complex (1/1) with fragments (1, 2) in the basis of fragments (1, 2).


*** tstart() called on cpu-spot-dy-c5n2xlarge-1
*** at Tue Jun 22 17:15:36 2021

   => Loading Basis Set <=

    Name: AUG-CC-PVDZ
    Role: ORBITAL
    Keyword: BASIS
    atoms 1             entry N          line   214 file /fsx/users/francis/anaconda3/envs/poltype-dev/share/psi4/basis/aug-cc-pvdz.gbs 
    atoms 2-3, 6-12, 14 entry C          line   178 file /fsx/users/francis/anaconda3/envs/poltype-dev/share/psi4/basis/aug-cc-pvdz.gbs 
    atoms 4-5           entry F          line   286 file /fsx/users/francis/anaconda3/envs/poltype-dev/share/psi4/basis/aug-cc-pvdz.gbs 
    atoms 13            entry S          line   698 file /fsx/users/francis/anaconda3/envs/poltype-dev/share/psi4/basis/aug-cc-pvdz.gbs 
    atoms 15-16, 24     entry O          line   250 file /fsx/users/francis/anaconda3/envs/poltype-dev/share/psi4/basis/aug-cc-pvdz.gbs 
    atoms 17-23, 25-26  entry H          line    36 file /fsx/users/francis/anaconda3/envs/poltype-dev/share/psi4/basis/aug-cc-pvdz.gbs 


         ---------------------------------------------------------
                                   SCF
               by Justin Turney, Rob Parrish, Andy Simmonett
                          and Daniel G. A. Smith
                              RKS Reference
                        8 Threads,  15258 MiB Core
         ---------------------------------------------------------

  ==> Geometry <==

    Molecular point group: c1
    Full point group: C1

    Geometry (in Angstrom), charge = 0, multiplicity = 1:

       Center              X                  Y                   Z               Mass       
    ------------   -----------------  -----------------  -----------------  -----------------
         N           -0.718562714440    -1.531017542282     0.372937997748    14.003074004430
         C           -2.001444714440    -1.255143542282     0.772261997748    12.000000000000
         C           -2.314545714440     0.259810457718     0.993382997748    12.000000000000
[...]
         H            5.168627285560     0.672061457718     0.382974997748     1.007825032230
         H            4.605467285560    -0.837809542282     1.162117997748     1.007825032230
         H            6.103663285560    -0.840773542282     0.184606997748     1.007825032230
         O           -2.259221114440     0.267663657718    -1.559185402252    15.994914619570
         H           -2.991219114440    -0.347894342282    -1.636775402252     1.007825032230
         H           -2.537131114440     1.098273657718    -1.951435402252     1.007825032230

  Running in c1 symmetry.

  Rotational constants: A =      0.03029  B =      0.00781  C =      0.00712 [cm^-1]
  Rotational constants: A =    907.97436  B =    234.07127  C =    213.56849 [MHz]
  Nuclear repulsion = 1368.886008738078772

  Charge       = 0
  Multiplicity = 1
  Electrons    = 134
  Nalpha       = 67
  Nbeta        = 67

  ==> Algorithm <==

  SCF Algorithm Type is DF.
  DIIS enabled.
  MOM disabled.
  Fractional occupation disabled.
  Guess Type is SAD.
  Energy threshold   = 1.00e-06
  Density threshold  = 1.00e-06
  Integral threshold = 0.00e+00

  ==> Primary Basis <==

  Basis Set: AUG-CC-PVDZ
    Blend: AUG-CC-PVDZ
    Number of shells: 200
    Number of basis function: 476
    Number of Cartesian functions: 510
    Spherical Harmonics?: true
    Max angular momentum: 2

  ==> DFT Potential <==

   => Composite Functional: WB97X-D <= 

    wB97X-D Hyb-GGA Exchange-Correlation Functional

    J.-D. Chai and M. Head-Gordon, Phys. Chem. Chem. Phys. 10, 6615 (2008)

    Deriv               =              1
    GGA                 =           TRUE
    Meta                =          FALSE

    Exchange Hybrid     =           TRUE
    MP2 Hybrid          =          FALSE

   => Exchange-Correlation Functionals <=

    1.0000   wB97D range-separated functional

   => Exact (HF) Exchange <=

    0.7780            HF,LR [omega = 0.2000]
    0.2220               HF 

   => Molecular Quadrature <=

    Radial Scheme          =       TREUTLER
    Pruning Scheme         =           FLAT
    Nuclear Scheme         =       TREUTLER

    BS radius alpha        =              1
    Pruning alpha          =              1
    Radial Points          =             75
    Spherical Points       =            302
    Total Points           =         588900
    Total Blocks           =           4355
    Max Points             =            256
    Max Functions          =            436

   => WB97X-D: Empirical Dispersion <=

    Chai and Head-Gordon Dispersion Correction
    Chai, J.-D.; Head-Gordon, M. (2010), J. Chem. Phys., 132: 6615-6620

        s6 =       1.000000

   => Loading Basis Set <=

    Name: (AUG-CC-PVDZ AUX)
    Role: JKFIT
    Keyword: DF_BASIS_SCF
    atoms 1             entry N          line   212 file /fsx/users/francis/anaconda3/envs/poltype-dev/share/psi4/basis/aug-cc-pvdz-jkfit.gbs 
    atoms 2-3, 6-12, 14 entry C          line   154 file /fsx/users/francis/anaconda3/envs/poltype-dev/share/psi4/basis/aug-cc-pvdz-jkfit.gbs 
    atoms 4-5           entry F          line   328 file /fsx/users/francis/anaconda3/envs/poltype-dev/share/psi4/basis/aug-cc-pvdz-jkfit.gbs 
    atoms 13            entry S          line   690 file /fsx/users/francis/anaconda3/envs/poltype-dev/share/psi4/basis/aug-cc-pvdz-jkfit.gbs 
    atoms 15-16, 24     entry O          line   270 file /fsx/users/francis/anaconda3/envs/poltype-dev/share/psi4/basis/aug-cc-pvdz-jkfit.gbs 
    atoms 17-23, 25-26  entry H          line    70 file /fsx/users/francis/anaconda3/envs/poltype-dev/share/psi4/basis/aug-cc-pvdz-jkfit.gbs 

  ==> Pre-Iterations <==

   -------------------------------------------------------
    Irrep   Nso     Nmo     Nalpha   Nbeta   Ndocc  Nsocc
   -------------------------------------------------------
     A        476     476       0       0       0       0
   -------------------------------------------------------
    Total     476     476      67      67      67       0
   -------------------------------------------------------

  ==> Integral Setup <==

  ==> DiskDFJK: Density-Fitted J/K Matrices <==

    J tasked:                  Yes
    K tasked:                  Yes
    wK tasked:                 Yes
    Omega:               2.000E-01
    OpenMP threads:              8
    Integrals threads:           8
    Memory [MiB]:             5769
    Algorithm:                Core
    Integral Cache:           NONE
    Schwarz Cutoff:          1E-12
    Fitting Condition:       1E-10

   => Auxiliary Basis Set <=

  Basis Set: (AUG-CC-PVDZ AUX)
    Blend: AUG-CC-PVDZ-JKFIT
    Number of shells: 596
    Number of basis function: 1792
    Number of Cartesian functions: 2081
    Spherical Harmonics?: true
    Max angular momentum: 3

  Cached 100.0% of DFT collocation blocks in 5.541 [GiB].

  Minimum eigenvalue in the overlap matrix is 1.4580245773E-06.
  Using Symmetric Orthogonalization.

  SCF Guess: Superposition of Atomic Densities via on-the-fly atomic UHF.

  ==> Iterations <==

                           Total Energy        Delta E     RMS |[F,P]|

   @DF-RKS iter SAD: -1263.65319314420822   -1.26365e+03   0.00000e+00 
   @DF-RKS iter   1: -1263.99314966578345   -3.39957e-01   2.49800e-03 DIIS
   @DF-RKS iter   2: -1264.03937294284833   -4.62233e-02   2.59827e-03 DIIS
   @DF-RKS iter   3: -1264.60049891737617   -5.61126e-01   4.95564e-04 DIIS
   @DF-RKS iter   4: -1264.62063300986938   -2.01341e-02   1.84023e-04 DIIS
   @DF-RKS iter   5: -1264.62364713116767   -3.01412e-03   5.36554e-05 DIIS
   @DF-RKS iter   6: -1264.62394154055164   -2.94409e-04   1.37785e-05 DIIS
   @DF-RKS iter   7: -1264.62396739332894   -2.58528e-05   4.65867e-06 DIIS
   @DF-RKS iter   8: -1264.62397157196892   -4.17864e-06   1.85899e-06 DIIS
   @DF-RKS iter   9: -1264.62397248381558   -9.11847e-07   1.12255e-06 DIIS
   @DF-RKS iter  10: -1264.62397274015984   -2.56344e-07   3.24091e-07 DIIS
  Energy and wave function converged.


  ==> Post-Iterations <==

    Orbital Energies [Eh]
    ---------------------

    Doubly Occupied:                                                      

       1A    -89.061528     2A    -24.870662     3A    -24.861542  
       4A    -19.313746     5A    -19.282325     6A    -19.281687  
       7A    -14.527666     8A    -10.498507     9A    -10.448701  
      10A    -10.428576    11A    -10.394056    12A    -10.366604  
      13A    -10.344228    14A    -10.339886    15A    -10.339694  
      16A    -10.338318    17A    -10.333846    18A     -8.078982  
      19A     -6.028833    20A     -6.024732    21A     -6.017794  
      22A     -1.377740    23A     -1.320214    24A     -1.184684  
      25A     -1.172653    26A     -1.154378    27A     -1.084104  
      28A     -0.989405    29A     -0.928023    30A     -0.894235  
      31A     -0.878033    32A     -0.857475    33A     -0.783523  
      34A     -0.755797    35A     -0.742243    36A     -0.731403  
      37A     -0.687527    38A     -0.675132    39A     -0.666957  
      40A     -0.662380    41A     -0.634222    42A     -0.620095  
      43A     -0.580056    44A     -0.572753    45A     -0.566279  
      46A     -0.558155    47A     -0.551189    48A     -0.546509  
      49A     -0.541010    50A     -0.532271    51A     -0.526677  
      52A     -0.521809    53A     -0.517573    54A     -0.513656  
      55A     -0.494760    56A     -0.491829    57A     -0.480854  
      58A     -0.473408    59A     -0.464725    60A     -0.432603  
      61A     -0.429341    62A     -0.411170    63A     -0.389807  
      64A     -0.360023    65A     -0.355728    66A     -0.330217  
      67A     -0.324099  

    Virtual:                                                              

      68A     -0.033256    69A      0.015130    70A      0.027574  
      71A      0.033838    72A      0.037163    73A      0.044479  
      74A      0.051802    75A      0.052963    76A      0.059314  
      77A      0.067674    78A      0.069799    79A      0.075382  
      80A      0.080985    81A      0.085912    82A      0.089681  
      83A      0.096530    84A      0.104919    85A      0.108953  
      86A      0.112905    87A      0.116907    88A      0.119002  
      89A      0.120563    90A      0.125915    91A      0.129035  
      92A      0.134338    93A      0.137577    94A      0.138739  
      95A      0.144337    96A      0.148425    97A      0.152399  
      98A      0.155605    99A      0.160028   100A      0.162515  
     101A      0.168708   102A      0.172646   103A      0.173087  
     104A      0.177827   105A      0.179426   106A      0.184133  
     107A      0.185365   108A      0.192330   109A      0.195825  
     110A      0.199801   111A      0.200749   112A      0.206784  
     113A      0.210271   114A      0.214169   115A      0.220413  
     116A      0.224911   117A      0.233400   118A      0.235346  
     119A      0.238765   120A      0.240824   121A      0.243113  
     122A      0.250054   123A      0.254985   124A      0.258878  
     125A      0.260838   126A      0.265316   127A      0.267911  
     128A      0.276326   129A      0.277693   130A      0.280779  
     131A      0.285139   132A      0.288253   133A      0.291838  
     134A      0.292524   135A      0.294669   136A      0.299519  
     137A      0.301943   138A      0.308526   139A      0.314664  
     140A      0.315814   141A      0.322440   142A      0.324308  
     143A      0.328662   144A      0.336894   145A      0.339739  
     146A      0.345868   147A      0.349782   148A      0.354341  
     149A      0.355918   150A      0.359702   151A      0.363549  
     152A      0.369835   153A      0.373181   154A      0.373487  
     155A      0.380212   156A      0.385505   157A      0.388325  
     158A      0.390796   159A      0.392804   160A      0.398030  
     161A      0.403881   162A      0.408775   163A      0.411432  
     164A      0.416809   165A      0.421102   166A      0.423814  
     167A      0.428654   168A      0.433467   169A      0.436833  
     170A      0.442868   171A      0.444739   172A      0.450279  
     173A      0.458294   174A      0.465393   175A      0.471282  
     176A      0.480836   177A      0.484612   178A      0.493799  
     179A      0.496387   180A      0.498838   181A      0.500738  
     182A      0.506200   183A      0.515105   184A      0.520846  
     185A      0.521316   186A      0.525179   187A      0.532981  
     188A      0.535539   189A      0.543417   190A      0.547352  
     191A      0.549633   192A      0.557233   193A      0.567983  
     194A      0.572544   195A      0.573781   196A      0.579994  
     197A      0.584223   198A      0.593473   199A      0.598044  
     200A      0.600257   201A      0.603806   202A      0.611966  
     203A      0.614302   204A      0.620732   205A      0.621529  
     206A      0.630560   207A      0.639104   208A      0.641262  
     209A      0.647304   210A      0.650751   211A      0.656150  
     212A      0.658418   213A      0.665306   214A      0.667673  
     215A      0.673655   216A      0.678369   217A      0.685958  
     218A      0.689338   219A      0.695201   220A      0.697581  
     221A      0.704661   222A      0.711709   223A      0.713202  
     224A      0.717079   225A      0.721640   226A      0.736153  
     227A      0.740588   228A      0.745862   229A      0.758404  
     230A      0.763012   231A      0.765667   232A      0.773157  
     233A      0.782382   234A      0.785711   235A      0.791738  
     236A      0.794746   237A      0.804997   238A      0.813377  
     239A      0.819433   240A      0.826012   241A      0.827572  
     242A      0.829584   243A      0.833436   244A      0.836617  
     245A      0.848721   246A      0.858780   247A      0.861076  
     248A      0.863808   249A      0.873577   250A      0.880411  
     251A      0.886669   252A      0.892072   253A      0.910681  
     254A      0.914781   255A      0.926110   256A      0.934294  
     257A      0.947248   258A      0.952561   259A      0.956838  
     260A      0.965171   261A      0.977177   262A      0.979973  
     263A      0.996171   264A      1.002554   265A      1.006983  
     266A      1.017563   267A      1.020431   268A      1.027850  
     269A      1.033929   270A      1.049503   271A      1.071401  
     272A      1.075611   273A      1.083056   274A      1.088168  
     275A      1.103856   276A      1.111061   277A      1.117821  
     278A      1.129460   279A      1.135984   280A      1.146733  
     281A      1.151495   282A      1.155512   283A      1.160268  
     284A      1.166207   285A      1.183518   286A      1.195450  
     287A      1.196922   288A      1.201168   289A      1.218285  
     290A      1.221956   291A      1.239418   292A      1.257168  
     293A      1.265136   294A      1.272095   295A      1.283645  
     296A      1.295095   297A      1.301875   298A      1.312081  
     299A      1.321547   300A      1.330416   301A      1.333329  
     302A      1.342907   303A      1.356490   304A      1.372789  
     305A      1.378443   306A      1.387720   307A      1.393862  
     308A      1.403975   309A      1.417322   310A      1.425858  
     311A      1.430424   312A      1.439828   313A      1.447542  
     314A      1.453659   315A      1.466449   316A      1.484081  
     317A      1.489701   318A      1.496955   319A      1.510751  
     320A      1.520801   321A      1.524374   322A      1.532368  
     323A      1.542483   324A      1.549624   325A      1.560856  
     326A      1.573064   327A      1.576278   328A      1.583794  
     329A      1.587358   330A      1.594262   331A      1.607489  
     332A      1.617488   333A      1.622623   334A      1.624571  
     335A      1.629715   336A      1.642444   337A      1.650462  
     338A      1.664439   339A      1.677472   340A      1.683188  
     341A      1.693316   342A      1.707493   343A      1.713271  
     344A      1.719583   345A      1.724892   346A      1.739066  
     347A      1.755930   348A      1.759444   349A      1.761175  
     350A      1.770156   351A      1.780924   352A      1.788052  
     353A      1.798443   354A      1.813880   355A      1.832516  
     356A      1.834003   357A      1.847579   358A      1.851681  
     359A      1.867539   360A      1.875656   361A      1.883311  
     362A      1.887433   363A      1.890557   364A      1.905590  
     365A      1.908709   366A      1.921510   367A      1.938444  
     368A      1.951419   369A      1.955655   370A      1.964016  
     371A      1.972424   372A      1.983807   373A      1.995441  
     374A      2.002450   375A      2.006532   376A      2.026566  
     377A      2.035224   378A      2.043230   379A      2.050937  
     380A      2.053809   381A      2.066258   382A      2.090139  
     383A      2.095172   384A      2.105467   385A      2.111129  
     386A      2.114621   387A      2.123544   388A      2.149266  
     389A      2.157543   390A      2.176698   391A      2.185929  
     392A      2.195995   393A      2.200057   394A      2.219497  
     395A      2.229273   396A      2.236957   397A      2.243040  
     398A      2.251003   399A      2.274272   400A      2.299819  
     401A      2.307570   402A      2.310790   403A      2.324855  
     404A      2.346544   405A      2.354592   406A      2.359015  
     407A      2.362536   408A      2.380779   409A      2.389401  
     410A      2.396653   411A      2.419811   412A      2.435696  
     413A      2.461819   414A      2.475758   415A      2.487804  
     416A      2.513913   417A      2.519771   418A      2.535101  
     419A      2.583528   420A      2.604760   421A      2.619203  
     422A      2.625464   423A      2.652701   424A      2.682929  
     425A      2.687200   426A      2.693337   427A      2.713221  
     428A      2.716789   429A      2.738545   430A      2.758989  
     431A      2.766468   432A      2.826549   433A      2.870746  
     434A      2.885855   435A      2.957122   436A      2.979627  
     437A      3.027164   438A      3.060534   439A      3.077717  
     440A      3.134738   441A      3.222531   442A      3.272356  
     443A      3.385361   444A      3.399969   445A      3.424918  
     446A      3.452174   447A      3.479744   448A      3.498773  
     449A      3.501248   450A      3.536463   451A      3.560409  
     452A      3.566048   453A      3.594761   454A      3.606508  
     455A      3.633581   456A      3.658965   457A      3.687563  
     458A      3.749611   459A      3.771537   460A      3.826401  
     461A      3.834633   462A      3.921724   463A      3.976574  
     464A      4.052166   465A      4.220047   466A      4.537100  
     467A      4.647755   468A      4.680746   469A      4.733231  
     470A      4.741308   471A      4.769340   472A      4.781724  
     473A      4.803201   474A      4.833178   475A      4.898984  
     476A      4.916018  

    Final Occupation by Irrep:
              A 
    DOCC [    67 ]

  @DF-RKS Final Energy: -1264.62397274015984

   => Energetics <=

    Nuclear Repulsion Energy =           1368.8860087380787718
    One-Electron Energy =               -4457.5566987422007514
    Two-Electron Energy =                1920.1174877441069384
    DFT Exchange-Correlation Energy =     -96.0534152108415498
    Empirical Dispersion Energy =          -0.0173552693033964
    VV10 Nonlocal Energy =                  0.0000000000000000
    Total Energy =                      -1264.6239727401598429

Computation Completed


Properties will be evaluated at  -0.000000,  -0.000000,   0.000000 [a0]

Properties computed using the SCF density matrix

  Nuclear Dipole Moment: [e a0]
     X:    19.7570      Y:    -1.2155      Z:    -6.7269

  Electronic Dipole Moment: [e a0]
     X:   -18.2083      Y:     0.9019      Z:     5.9269

  Dipole Moment: [e a0]
     X:     1.5486      Y:    -0.3136      Z:    -0.8000     Total:     1.7711

  Dipole Moment: [D]
     X:     3.9362      Y:    -0.7972      Z:    -2.0334     Total:     4.5016


*** tstop() called on cpu-spot-dy-c5n2xlarge-1 at Tue Jun 22 17:17:44 2021
Module time:
	user time   =     945.04 seconds =      15.75 minutes
	system time =       9.38 seconds =       0.16 minutes
	total time  =        128 seconds =       2.13 minutes
Total time:
	user time   =    3203.99 seconds =      53.40 minutes
	system time =      32.78 seconds =       0.55 minutes
	total time  =        434 seconds =       7.23 minutes

       N-Body: Complex Energy (fragments = (1, 2), basis = (1, 2): -1264.62397274015984)

   ==> N-Body: Counterpoise Corrected (CP) energies <==

   n-Body     Total Energy [Eh]       I.E. [kcal/mol]      Delta [kcal/mol]
        1    -1264.624402522451        0.000000000000        0.000000000000
        2    -1264.622057059506        1.471800218356        1.471800218356

   => Loading Basis Set <=

    Name: DEF2-SVP
    Role: ORBITAL
    Keyword: BASIS
    atoms 1             entry N          line   110 file /fsx/users/francis/anaconda3/envs/poltype-dev/share/psi4/basis/def2-svp.gbs 
    atoms 2-3, 6-12, 14 entry C          line    90 file /fsx/users/francis/anaconda3/envs/poltype-dev/share/psi4/basis/def2-svp.gbs 
    atoms 4-5           entry F          line   150 file /fsx/users/francis/anaconda3/envs/poltype-dev/share/psi4/basis/def2-svp.gbs 
    atoms 13            entry S          line   328 file /fsx/users/francis/anaconda3/envs/poltype-dev/share/psi4/basis/def2-svp.gbs 
    atoms 15-16, 24     entry O          line   130 file /fsx/users/francis/anaconda3/envs/poltype-dev/share/psi4/basis/def2-svp.gbs 
    atoms 17-23, 25-26  entry H          line    15 file /fsx/users/francis/anaconda3/envs/poltype-dev/share/psi4/basis/def2-svp.gbs 

CP Energy =   0.002345
    Psi4 stopped on: Tuesday, 22 June 2021 05:17PM
    Psi4 wall time for execution: 0:07:14.82

*** Psi4 exiting successfully. Buy a developer a beer!
