
Host: cpu-spot-dy-c5n2xlarge-1

Timers On : Tue Jun 22 13:28:03 2021
Timers Off: Tue Jun 22 13:35:32 2021

Wall Time:      448.79 seconds

                                                       Time (seconds)
Module                                       User      System        Wall        Calls
V: Grid                             :     28.717u      0.050s      3.363w      5 calls
JK: (A|mn)                          :    324.517u      0.050s     25.185w      5 calls
JK: (A|Q)^-1/2                      :     19.883u      0.250s      3.207w      5 calls
JK: (Q|mn)                          :     54.133u      0.000s      8.125w      5 calls
JK: (A|mn)^L                        :    141.617u      0.033s     11.189w      5 calls
JK: (A|Q)^-1                        :     18.283u      0.200s      2.931w      5 calls
JK: (Q|mn)^L                        :     48.433u      0.000s      7.262w      5 calls
JK: (A|mn)^R                        :    172.517u      0.000s     13.581w      5 calls
HF: Form core H                     :      0.300u      0.033s      0.054w      5 calls
HF: Form S/X                        :      1.133u      0.017s      0.140w      5 calls
HF: Guess                           :      9.667u      0.167s      2.616w      5 calls
SAD Guess                           :      9.417u      0.167s      2.556w      5 calls
HF: Form G                          :   3981.700u     20.667s    341.106w     50 calls
RV: Form V                          :   1138.850u      0.167s     90.128w     50 calls
Properties                          :    240.175p                         182797 calls
Functional                          :     45.618p                         182797 calls
V_xc                                :    432.433p                         182797 calls
JK: D                               :      0.250u      0.017s      0.020w     50 calls
JK: USO2AO                          :      0.417u      0.000s      0.032w     50 calls
JK: JK                              :   2841.467u     20.467s    250.865w     50 calls
JK: J                               :     18.800u      0.000s      3.136w     50 calls
JK: J1                              :      9.500u      0.000s      1.611w     50 calls
JK: J2                              :      9.067u      0.000s      1.477w     50 calls
JK: K                               :    983.017u      0.217s     82.427w     50 calls
JK: K1                              :    922.200u      0.217s     73.336w     50 calls
JK: K2                              :     60.667u      0.000s      9.079w     50 calls
JK: wK                              :   1824.700u      0.633s    149.375w    100 calls
JK: wK1                             :   1762.383u      0.550s    140.162w    200 calls
JK: wK2                             :     61.817u      0.050s      9.186w    100 calls
JK: AO2USO                          :      0.000u      0.000s      0.000w     50 calls
HF: Form F                          :      0.867u      0.000s      0.084w     50 calls
HF: Form D                          :      0.050u      0.000s      0.016w     50 calls
HF: DIIS                            :      5.283u      0.450s      0.605w     45 calls
DIISManager::add_entry              :      0.783u      0.067s      0.106w     45 calls
DIISManager::extrapolate            :      1.917u      0.350s      0.209w     45 calls
bMatrix setup                       :      1.100u      0.233s      0.103w     45 calls
bMatrix pseudoinverse               :      0.067u      0.000s      0.003w     45 calls
New vector                          :      0.733u      0.117s      0.103w     45 calls
HF: Form C                          :      8.217u      0.017s      1.208w     45 calls

--------------------------------------------------------------------------------------
V: Grid                             :     28.717u      0.050s      3.363w      5 calls
JK: (A|mn)                          :    324.517u      0.050s     25.185w      5 calls
JK: (A|Q)^-1/2                      :     19.883u      0.250s      3.207w      5 calls
JK: (Q|mn)                          :     54.133u      0.000s      8.125w      5 calls
JK: (A|mn)^L                        :    141.617u      0.033s     11.189w      5 calls
JK: (A|Q)^-1                        :     18.283u      0.200s      2.931w      5 calls
JK: (Q|mn)^L                        :     48.433u      0.000s      7.262w      5 calls
JK: (A|mn)^R                        :    172.517u      0.000s     13.581w      5 calls
HF: Form core H                     :      0.300u      0.033s      0.054w      5 calls
HF: Form S/X                        :      1.133u      0.017s      0.140w      5 calls
HF: Guess                           :      9.667u      0.167s      2.616w      5 calls
| SAD Guess                         :      9.417u      0.167s      2.556w      5 calls
HF: Form G                          :   3981.700u     20.667s    341.106w     50 calls
| RV: Form V                        :   1138.850u      0.167s     90.128w     50 calls
| | Properties                      :    240.175p                         182797 calls
| | Functional                      :     45.618p                         182797 calls
| | V_xc                            :    432.433p                         182797 calls
| JK: D                             :      0.250u      0.017s      0.020w     50 calls
| JK: USO2AO                        :      0.417u      0.000s      0.032w     50 calls
| JK: JK                            :   2841.467u     20.467s    250.865w     50 calls
| | JK: J                           :     18.800u      0.000s      3.136w     50 calls
| | | JK: J1                        :      9.500u      0.000s      1.611w     50 calls
| | | JK: J2                        :      9.067u      0.000s      1.477w     50 calls
| | JK: K                           :    983.017u      0.217s     82.427w     50 calls
| | | JK: K1                        :    922.200u      0.217s     73.336w     50 calls
| | | JK: K2                        :     60.667u      0.000s      9.079w     50 calls
| | JK: wK                          :   1824.700u      0.633s    149.375w    100 calls
| | | JK: wK1                       :   1762.383u      0.550s    140.162w    200 calls
| | | JK: wK2                       :     61.817u      0.050s      9.186w    100 calls
| JK: AO2USO                        :      0.000u      0.000s      0.000w     50 calls
HF: Form F                          :      0.867u      0.000s      0.084w     50 calls
HF: Form D                          :      0.050u      0.000s      0.016w     50 calls
HF: DIIS                            :      5.283u      0.450s      0.605w     45 calls
| DIISManager::add_entry            :      0.783u      0.067s      0.106w     45 calls
| DIISManager::extrapolate          :      1.917u      0.350s      0.209w     45 calls
| | bMatrix setup                   :      1.100u      0.233s      0.103w     45 calls
| | bMatrix pseudoinverse           :      0.067u      0.000s      0.003w     45 calls
| | New vector                      :      0.733u      0.117s      0.103w     45 calls
HF: Form C                          :      8.217u      0.017s      1.208w     45 calls

**************************************************************************************

Host: cpu-spot-dy-c5n2xlarge-1

Timers On : Tue Jun 22 13:35:38 2021
Timers Off: Tue Jun 22 13:43:08 2021

Wall Time:      450.18 seconds

                                                       Time (seconds)
Module                                       User      System        Wall        Calls
V: Grid                             :     43.167u      0.317s      3.849w      5 calls
JK: (A|mn)                          :    327.183u      0.033s     26.165w      5 calls
JK: (A|Q)^-1/2                      :     28.783u      0.583s      3.347w      5 calls
JK: (Q|mn)                          :     55.367u      0.000s      8.308w      5 calls
JK: (A|mn)^L                        :    146.650u      0.117s     11.780w      5 calls
JK: (A|Q)^-1                        :     31.783u      0.517s      3.726w      5 calls
JK: (Q|mn)^L                        :     56.033u      0.000s      8.402w      5 calls
JK: (A|mn)^R                        :    179.317u      0.150s     14.318w      5 calls
HF: Form core H                     :      0.567u      0.017s      0.051w      5 calls
HF: Form S/X                        :      2.033u      0.050s      0.170w      5 calls
HF: Guess                           :     37.983u      0.783s      3.103w      5 calls
SAD Guess                           :     37.167u      0.750s      3.030w      5 calls
HF: Form G                          :   4286.217u     28.983s    336.221w     50 calls
RV: Form V                          :   1139.400u      0.217s     88.105w     50 calls
Properties                          :    235.006p                         182549 calls
Functional                          :     44.538p                         182549 calls
V_xc                                :    421.825p                         182549 calls
JK: D                               :      0.217u      0.033s      0.020w     50 calls
JK: USO2AO                          :      0.433u      0.000s      0.032w     50 calls
JK: JK                              :   3145.183u     28.700s    247.975w     50 calls
JK: J                               :     26.033u      0.250s      3.063w     50 calls
JK: J1                              :     12.667u      0.100s      1.493w     50 calls
JK: J2                              :     12.933u      0.150s      1.520w     50 calls
JK: K                               :   1033.333u      1.417s     80.059w     50 calls
JK: K1                              :    940.800u      0.267s     72.343w     50 calls
JK: K2                              :     92.433u      1.150s      7.703w     50 calls
JK: wK                              :   1917.683u      2.100s    147.547w    100 calls
JK: wK1                             :   1814.033u      0.533s    139.577w    200 calls
JK: wK2                             :    102.967u      1.567s      7.944w    100 calls
JK: AO2USO                          :      0.000u      0.000s      0.000w     50 calls
HF: Form F                          :      0.367u      0.017s      0.031w     50 calls
HF: Form D                          :      0.200u      0.000s      0.018w     50 calls
HF: DIIS                            :      7.317u      0.483s      0.605w     45 calls
DIISManager::add_entry              :      1.550u      0.200s      0.120w     45 calls
DIISManager::extrapolate            :      2.633u      0.233s      0.218w     45 calls
bMatrix setup                       :      1.150u      0.200s      0.101w     45 calls
bMatrix pseudoinverse               :      0.050u      0.000s      0.003w     45 calls
New vector                          :      1.433u      0.033s      0.113w     45 calls
HF: Form C                          :     17.633u      0.267s      1.399w     45 calls

--------------------------------------------------------------------------------------
V: Grid                             :     43.167u      0.317s      3.849w      5 calls
JK: (A|mn)                          :    327.183u      0.033s     26.165w      5 calls
JK: (A|Q)^-1/2                      :     28.783u      0.583s      3.347w      5 calls
JK: (Q|mn)                          :     55.367u      0.000s      8.308w      5 calls
JK: (A|mn)^L                        :    146.650u      0.117s     11.780w      5 calls
JK: (A|Q)^-1                        :     31.783u      0.517s      3.726w      5 calls
JK: (Q|mn)^L                        :     56.033u      0.000s      8.402w      5 calls
JK: (A|mn)^R                        :    179.317u      0.150s     14.318w      5 calls
HF: Form core H                     :      0.567u      0.017s      0.051w      5 calls
HF: Form S/X                        :      2.033u      0.050s      0.170w      5 calls
HF: Guess                           :     37.983u      0.783s      3.103w      5 calls
| SAD Guess                         :     37.167u      0.750s      3.030w      5 calls
HF: Form G                          :   4286.217u     28.983s    336.221w     50 calls
| RV: Form V                        :   1139.400u      0.217s     88.105w     50 calls
| | Properties                      :    235.006p                         182549 calls
| | Functional                      :     44.538p                         182549 calls
| | V_xc                            :    421.825p                         182549 calls
| JK: D                             :      0.217u      0.033s      0.020w     50 calls
| JK: USO2AO                        :      0.433u      0.000s      0.032w     50 calls
| JK: JK                            :   3145.183u     28.700s    247.975w     50 calls
| | JK: J                           :     26.033u      0.250s      3.063w     50 calls
| | | JK: J1                        :     12.667u      0.100s      1.493w     50 calls
| | | JK: J2                        :     12.933u      0.150s      1.520w     50 calls
| | JK: K                           :   1033.333u      1.417s     80.059w     50 calls
| | | JK: K1                        :    940.800u      0.267s     72.343w     50 calls
| | | JK: K2                        :     92.433u      1.150s      7.703w     50 calls
| | JK: wK                          :   1917.683u      2.100s    147.547w    100 calls
| | | JK: wK1                       :   1814.033u      0.533s    139.577w    200 calls
| | | JK: wK2                       :    102.967u      1.567s      7.944w    100 calls
| JK: AO2USO                        :      0.000u      0.000s      0.000w     50 calls
HF: Form F                          :      0.367u      0.017s      0.031w     50 calls
HF: Form D                          :      0.200u      0.000s      0.018w     50 calls
HF: DIIS                            :      7.317u      0.483s      0.605w     45 calls
| DIISManager::add_entry            :      1.550u      0.200s      0.120w     45 calls
| DIISManager::extrapolate          :      2.633u      0.233s      0.218w     45 calls
| | bMatrix setup                   :      1.150u      0.200s      0.101w     45 calls
| | bMatrix pseudoinverse           :      0.050u      0.000s      0.003w     45 calls
| | New vector                      :      1.433u      0.033s      0.113w     45 calls
HF: Form C                          :     17.633u      0.267s      1.399w     45 calls

**************************************************************************************

Host: cpu-spot-dy-c5n2xlarge-1

Timers On : Tue Jun 22 13:43:13 2021
Timers Off: Tue Jun 22 13:50:37 2021

Wall Time:      444.34 seconds

                                                       Time (seconds)
Module                                       User      System        Wall        Calls
V: Grid                             :     44.333u      0.350s      3.715w      5 calls
JK: (A|mn)                          :    324.933u      0.017s     24.388w      5 calls
JK: (A|Q)^-1/2                      :     27.117u      0.317s      2.945w      5 calls
JK: (Q|mn)                          :     49.250u      0.000s      7.393w      5 calls
JK: (A|mn)^L                        :    145.783u      0.150s     10.953w      5 calls
JK: (A|Q)^-1                        :     26.600u      0.300s      2.885w      5 calls
JK: (Q|mn)^L                        :     47.117u      0.000s      7.068w      5 calls
JK: (A|mn)^R                        :    176.600u      0.083s     13.260w      5 calls
HF: Form core H                     :      0.583u      0.050s      0.052w      5 calls
HF: Form S/X                        :      1.717u      0.050s      0.130w      5 calls
HF: Guess                           :     36.200u      0.733s      2.772w      5 calls
SAD Guess                           :     35.400u      0.717s      2.710w      5 calls
HF: Form G                          :   4433.417u     28.817s    339.521w     51 calls
RV: Form V                          :   1167.883u      0.133s     87.675w     51 calls
Properties                          :    233.795p                         186821 calls
Functional                          :     44.263p                         186821 calls
V_xc                                :    421.058p                         186821 calls
JK: D                               :      0.233u      0.017s      0.019w     51 calls
JK: USO2AO                          :      0.467u      0.017s      0.032w     51 calls
JK: JK                              :   3264.117u     28.617s    251.739w     51 calls
JK: J                               :     20.917u      0.150s      2.526w     51 calls
JK: J1                              :     10.217u      0.067s      1.236w     51 calls
JK: J2                              :     10.200u      0.083s      1.239w     51 calls
JK: K                               :   1070.950u      1.417s     81.190w     51 calls
JK: K1                              :    982.083u      0.350s     73.746w     51 calls
JK: K2                              :     88.817u      1.067s      7.431w     51 calls
JK: wK                              :   2008.717u      2.150s    150.979w    102 calls
JK: wK1                             :   1908.167u      0.683s    143.290w    204 calls
JK: wK2                             :     99.950u      1.467s      7.663w    102 calls
JK: AO2USO                          :      0.000u      0.000s      0.000w     51 calls
HF: Form F                          :      0.367u      0.000s      0.029w     51 calls
HF: Form D                          :      0.167u      0.017s      0.015w     51 calls
HF: DIIS                            :      7.100u      0.700s      0.580w     46 calls
DIISManager::add_entry              :      1.733u      0.183s      0.121w     46 calls
DIISManager::extrapolate            :      2.533u      0.467s      0.221w     46 calls
bMatrix setup                       :      1.117u      0.250s      0.102w     46 calls
bMatrix pseudoinverse               :      0.017u      0.000s      0.003w     46 calls
New vector                          :      1.400u      0.217s      0.116w     46 calls
HF: Form C                          :     16.400u      0.200s      1.251w     46 calls

--------------------------------------------------------------------------------------
V: Grid                             :     44.333u      0.350s      3.715w      5 calls
JK: (A|mn)                          :    324.933u      0.017s     24.388w      5 calls
JK: (A|Q)^-1/2                      :     27.117u      0.317s      2.945w      5 calls
JK: (Q|mn)                          :     49.250u      0.000s      7.393w      5 calls
JK: (A|mn)^L                        :    145.783u      0.150s     10.953w      5 calls
JK: (A|Q)^-1                        :     26.600u      0.300s      2.885w      5 calls
JK: (Q|mn)^L                        :     47.117u      0.000s      7.068w      5 calls
JK: (A|mn)^R                        :    176.600u      0.083s     13.260w      5 calls
HF: Form core H                     :      0.583u      0.050s      0.052w      5 calls
HF: Form S/X                        :      1.717u      0.050s      0.130w      5 calls
HF: Guess                           :     36.200u      0.733s      2.772w      5 calls
| SAD Guess                         :     35.400u      0.717s      2.710w      5 calls
HF: Form G                          :   4433.417u     28.817s    339.521w     51 calls
| RV: Form V                        :   1167.883u      0.133s     87.675w     51 calls
| | Properties                      :    233.795p                         186821 calls
| | Functional                      :     44.263p                         186821 calls
| | V_xc                            :    421.058p                         186821 calls
| JK: D                             :      0.233u      0.017s      0.019w     51 calls
| JK: USO2AO                        :      0.467u      0.017s      0.032w     51 calls
| JK: JK                            :   3264.117u     28.617s    251.739w     51 calls
| | JK: J                           :     20.917u      0.150s      2.526w     51 calls
| | | JK: J1                        :     10.217u      0.067s      1.236w     51 calls
| | | JK: J2                        :     10.200u      0.083s      1.239w     51 calls
| | JK: K                           :   1070.950u      1.417s     81.190w     51 calls
| | | JK: K1                        :    982.083u      0.350s     73.746w     51 calls
| | | JK: K2                        :     88.817u      1.067s      7.431w     51 calls
| | JK: wK                          :   2008.717u      2.150s    150.979w    102 calls
| | | JK: wK1                       :   1908.167u      0.683s    143.290w    204 calls
| | | JK: wK2                       :     99.950u      1.467s      7.663w    102 calls
| JK: AO2USO                        :      0.000u      0.000s      0.000w     51 calls
HF: Form F                          :      0.367u      0.000s      0.029w     51 calls
HF: Form D                          :      0.167u      0.017s      0.015w     51 calls
HF: DIIS                            :      7.100u      0.700s      0.580w     46 calls
| DIISManager::add_entry            :      1.733u      0.183s      0.121w     46 calls
| DIISManager::extrapolate          :      2.533u      0.467s      0.221w     46 calls
| | bMatrix setup                   :      1.117u      0.250s      0.102w     46 calls
| | bMatrix pseudoinverse           :      0.017u      0.000s      0.003w     46 calls
| | New vector                      :      1.400u      0.217s      0.116w     46 calls
HF: Form C                          :     16.400u      0.200s      1.251w     46 calls

**************************************************************************************

Host: cpu-spot-dy-c5n2xlarge-1

Timers On : Tue Jun 22 13:50:43 2021
Timers Off: Tue Jun 22 13:57:58 2021

Wall Time:      434.71 seconds

                                                       Time (seconds)
Module                                       User      System        Wall        Calls
V: Grid                             :     43.667u      0.383s      3.649w      5 calls
JK: (A|mn)                          :    323.700u      0.050s     24.392w      5 calls
JK: (A|Q)^-1/2                      :     27.567u      0.367s      3.003w      5 calls
JK: (Q|mn)                          :     48.917u      0.017s      7.348w      5 calls
JK: (A|mn)^L                        :    145.450u      0.133s     10.943w      5 calls
JK: (A|Q)^-1                        :     27.483u      0.317s      2.990w      5 calls
JK: (Q|mn)^L                        :     46.817u      0.000s      7.020w      5 calls
JK: (A|mn)^R                        :    176.017u      0.100s     13.235w      5 calls
HF: Form core H                     :      0.650u      0.017s      0.052w      5 calls
HF: Form S/X                        :      1.767u      0.050s      0.134w      5 calls
HF: Guess                           :     36.217u      0.767s      2.777w      5 calls
SAD Guess                           :     35.450u      0.767s      2.714w      5 calls
HF: Form G                          :   4307.967u     28.350s    329.901w     50 calls
RV: Form V                          :   1123.450u      0.167s     84.376w     50 calls
Properties                          :    226.349p                         181774 calls
Functional                          :     42.800p                         181774 calls
V_xc                                :    403.589p                         181774 calls
JK: D                               :      0.167u      0.000s      0.019w     50 calls
JK: USO2AO                          :      0.533u      0.000s      0.033w     50 calls
JK: JK                              :   3183.083u     28.183s    245.417w     50 calls
JK: J                               :     26.083u      0.283s      2.927w     50 calls
JK: J1                              :     12.533u      0.117s      1.416w     50 calls
JK: J2                              :     13.150u      0.167s      1.460w     50 calls
JK: K                               :   1040.717u      1.600s     78.847w     50 calls
JK: K1                              :    950.117u      0.267s     71.360w     50 calls
JK: K2                              :     90.483u      1.333s      7.475w     50 calls
JK: wK                              :   1949.917u      1.667s    146.573w    100 calls
JK: wK1                             :   1848.183u      0.283s    138.821w    200 calls
JK: wK2                             :    101.133u      1.383s      7.726w    100 calls
JK: AO2USO                          :      0.000u      0.000s      0.000w     50 calls
HF: Form F                          :      0.300u      0.000s      0.029w     50 calls
HF: Form D                          :      0.100u      0.000s      0.015w     50 calls
HF: DIIS                            :      7.233u      0.467s      0.576w     45 calls
DIISManager::add_entry              :      1.617u      0.150s      0.116w     45 calls
DIISManager::extrapolate            :      2.633u      0.283s      0.212w     45 calls
bMatrix setup                       :      1.100u      0.183s      0.098w     45 calls
bMatrix pseudoinverse               :      0.083u      0.000s      0.003w     45 calls
New vector                          :      1.450u      0.100s      0.111w     45 calls
HF: Form C                          :     16.133u      0.233s      1.235w     45 calls

--------------------------------------------------------------------------------------
V: Grid                             :     43.667u      0.383s      3.649w      5 calls
JK: (A|mn)                          :    323.700u      0.050s     24.392w      5 calls
JK: (A|Q)^-1/2                      :     27.567u      0.367s      3.003w      5 calls
JK: (Q|mn)                          :     48.917u      0.017s      7.348w      5 calls
JK: (A|mn)^L                        :    145.450u      0.133s     10.943w      5 calls
JK: (A|Q)^-1                        :     27.483u      0.317s      2.990w      5 calls
JK: (Q|mn)^L                        :     46.817u      0.000s      7.020w      5 calls
JK: (A|mn)^R                        :    176.017u      0.100s     13.235w      5 calls
HF: Form core H                     :      0.650u      0.017s      0.052w      5 calls
HF: Form S/X                        :      1.767u      0.050s      0.134w      5 calls
HF: Guess                           :     36.217u      0.767s      2.777w      5 calls
| SAD Guess                         :     35.450u      0.767s      2.714w      5 calls
HF: Form G                          :   4307.967u     28.350s    329.901w     50 calls
| RV: Form V                        :   1123.450u      0.167s     84.376w     50 calls
| | Properties                      :    226.349p                         181774 calls
| | Functional                      :     42.800p                         181774 calls
| | V_xc                            :    403.589p                         181774 calls
| JK: D                             :      0.167u      0.000s      0.019w     50 calls
| JK: USO2AO                        :      0.533u      0.000s      0.033w     50 calls
| JK: JK                            :   3183.083u     28.183s    245.417w     50 calls
| | JK: J                           :     26.083u      0.283s      2.927w     50 calls
| | | JK: J1                        :     12.533u      0.117s      1.416w     50 calls
| | | JK: J2                        :     13.150u      0.167s      1.460w     50 calls
| | JK: K                           :   1040.717u      1.600s     78.847w     50 calls
| | | JK: K1                        :    950.117u      0.267s     71.360w     50 calls
| | | JK: K2                        :     90.483u      1.333s      7.475w     50 calls
| | JK: wK                          :   1949.917u      1.667s    146.573w    100 calls
| | | JK: wK1                       :   1848.183u      0.283s    138.821w    200 calls
| | | JK: wK2                       :    101.133u      1.383s      7.726w    100 calls
| JK: AO2USO                        :      0.000u      0.000s      0.000w     50 calls
HF: Form F                          :      0.300u      0.000s      0.029w     50 calls
HF: Form D                          :      0.100u      0.000s      0.015w     50 calls
HF: DIIS                            :      7.233u      0.467s      0.576w     45 calls
| DIISManager::add_entry            :      1.617u      0.150s      0.116w     45 calls
| DIISManager::extrapolate          :      2.633u      0.283s      0.212w     45 calls
| | bMatrix setup                   :      1.100u      0.183s      0.098w     45 calls
| | bMatrix pseudoinverse           :      0.083u      0.000s      0.003w     45 calls
| | New vector                      :      1.450u      0.100s      0.111w     45 calls
HF: Form C                          :     16.133u      0.233s      1.235w     45 calls

**************************************************************************************

Host: cpu-spot-dy-c5n2xlarge-1

Timers On : Tue Jun 22 13:58:03 2021
Timers Off: Tue Jun 22 14:05:17 2021

Wall Time:      434.36 seconds

                                                       Time (seconds)
Module                                       User      System        Wall        Calls
V: Grid                             :     44.617u      0.467s      3.744w      5 calls
JK: (A|mn)                          :    330.983u      0.000s     24.852w      5 calls
JK: (A|Q)^-1/2                      :     27.050u      0.400s      2.953w      5 calls
JK: (Q|mn)                          :     49.183u      0.017s      7.388w      5 calls
JK: (A|mn)^L                        :    146.683u      0.167s     11.030w      5 calls
JK: (A|Q)^-1                        :     26.983u      0.300s      2.937w      5 calls
JK: (Q|mn)^L                        :     47.100u      0.017s      7.062w      5 calls
JK: (A|mn)^R                        :    177.567u      0.100s     13.338w      5 calls
HF: Form core H                     :      0.600u      0.050s      0.052w      5 calls
HF: Form S/X                        :      1.767u      0.033s      0.137w      5 calls
HF: Guess                           :     36.550u      0.683s      2.795w      5 calls
SAD Guess                           :     35.733u      0.667s      2.733w      5 calls
HF: Form G                          :   4287.917u     29.317s    328.892w     50 calls
RV: Form V                          :   1130.583u      0.417s     84.980w     50 calls
Properties                          :    230.034p                         182053 calls
Functional                          :     42.885p                         182053 calls
V_xc                                :    404.657p                         182053 calls
JK: D                               :      0.200u      0.000s      0.019w     50 calls
JK: USO2AO                          :      0.517u      0.017s      0.032w     50 calls
JK: JK                              :   3155.817u     28.883s    243.807w     50 calls
JK: J                               :     22.450u      0.133s      2.636w     50 calls
JK: J1                              :     10.800u      0.017s      1.278w     50 calls
JK: J2                              :     11.183u      0.117s      1.307w     50 calls
JK: K                               :   1034.883u      1.450s     78.533w     50 calls
JK: K1                              :    945.683u      0.267s     71.078w     50 calls
JK: K2                              :     89.117u      1.183s      7.442w     50 calls
JK: wK                              :   1937.350u      2.133s    145.704w    100 calls
JK: wK1                             :   1836.450u      0.650s    138.001w    200 calls
JK: wK2                             :    100.283u      1.483s      7.677w    100 calls
JK: AO2USO                          :      0.000u      0.000s      0.000w     50 calls
HF: Form F                          :      0.350u      0.000s      0.029w     50 calls
HF: Form D                          :      0.167u      0.000s      0.016w     50 calls
HF: DIIS                            :      7.067u      0.500s      0.566w     45 calls
DIISManager::add_entry              :      1.567u      0.150s      0.116w     45 calls
DIISManager::extrapolate            :      2.583u      0.283s      0.213w     45 calls
bMatrix setup                       :      1.067u      0.217s      0.098w     45 calls
bMatrix pseudoinverse               :      0.050u      0.000s      0.003w     45 calls
New vector                          :      1.467u      0.067s      0.112w     45 calls
HF: Form C                          :     16.050u      0.200s      1.225w     45 calls

--------------------------------------------------------------------------------------
V: Grid                             :     44.617u      0.467s      3.744w      5 calls
JK: (A|mn)                          :    330.983u      0.000s     24.852w      5 calls
JK: (A|Q)^-1/2                      :     27.050u      0.400s      2.953w      5 calls
JK: (Q|mn)                          :     49.183u      0.017s      7.388w      5 calls
JK: (A|mn)^L                        :    146.683u      0.167s     11.030w      5 calls
JK: (A|Q)^-1                        :     26.983u      0.300s      2.937w      5 calls
JK: (Q|mn)^L                        :     47.100u      0.017s      7.062w      5 calls
JK: (A|mn)^R                        :    177.567u      0.100s     13.338w      5 calls
HF: Form core H                     :      0.600u      0.050s      0.052w      5 calls
HF: Form S/X                        :      1.767u      0.033s      0.137w      5 calls
HF: Guess                           :     36.550u      0.683s      2.795w      5 calls
| SAD Guess                         :     35.733u      0.667s      2.733w      5 calls
HF: Form G                          :   4287.917u     29.317s    328.892w     50 calls
| RV: Form V                        :   1130.583u      0.417s     84.980w     50 calls
| | Properties                      :    230.034p                         182053 calls
| | Functional                      :     42.885p                         182053 calls
| | V_xc                            :    404.657p                         182053 calls
| JK: D                             :      0.200u      0.000s      0.019w     50 calls
| JK: USO2AO                        :      0.517u      0.017s      0.032w     50 calls
| JK: JK                            :   3155.817u     28.883s    243.807w     50 calls
| | JK: J                           :     22.450u      0.133s      2.636w     50 calls
| | | JK: J1                        :     10.800u      0.017s      1.278w     50 calls
| | | JK: J2                        :     11.183u      0.117s      1.307w     50 calls
| | JK: K                           :   1034.883u      1.450s     78.533w     50 calls
| | | JK: K1                        :    945.683u      0.267s     71.078w     50 calls
| | | JK: K2                        :     89.117u      1.183s      7.442w     50 calls
| | JK: wK                          :   1937.350u      2.133s    145.704w    100 calls
| | | JK: wK1                       :   1836.450u      0.650s    138.001w    200 calls
| | | JK: wK2                       :    100.283u      1.483s      7.677w    100 calls
| JK: AO2USO                        :      0.000u      0.000s      0.000w     50 calls
HF: Form F                          :      0.350u      0.000s      0.029w     50 calls
HF: Form D                          :      0.167u      0.000s      0.016w     50 calls
HF: DIIS                            :      7.067u      0.500s      0.566w     45 calls
| DIISManager::add_entry            :      1.567u      0.150s      0.116w     45 calls
| DIISManager::extrapolate          :      2.583u      0.283s      0.213w     45 calls
| | bMatrix setup                   :      1.067u      0.217s      0.098w     45 calls
| | bMatrix pseudoinverse           :      0.050u      0.000s      0.003w     45 calls
| | New vector                      :      1.467u      0.067s      0.112w     45 calls
HF: Form C                          :     16.050u      0.200s      1.225w     45 calls

**************************************************************************************

Host: cpu-spot-dy-c5n2xlarge-1

Timers On : Tue Jun 22 14:05:28 2021
Timers Off: Tue Jun 22 14:12:44 2021

Wall Time:      435.75 seconds

                                                       Time (seconds)
Module                                       User      System        Wall        Calls
V: Grid                             :     43.133u      0.417s      3.626w      5 calls
JK: (A|mn)                          :    322.400u      0.033s     24.220w      5 calls
JK: (A|Q)^-1/2                      :     26.600u      0.367s      2.876w      5 calls
JK: (Q|mn)                          :     49.267u      0.017s      7.400w      5 calls
JK: (A|mn)^L                        :    145.733u      0.183s     10.955w      5 calls
JK: (A|Q)^-1                        :     26.217u      0.400s      2.851w      5 calls
JK: (Q|mn)^L                        :     47.217u      0.000s      7.081w      5 calls
JK: (A|mn)^R                        :    176.967u      0.183s     13.310w      5 calls
HF: Form core H                     :      0.583u      0.100s      0.053w      5 calls
HF: Form S/X                        :      1.767u      0.017s      0.134w      5 calls
HF: Guess                           :     36.317u      0.783s      2.784w      5 calls
SAD Guess                           :     35.517u      0.783s      2.721w      5 calls
HF: Form G                          :   4318.917u     27.417s    331.156w     50 calls
RV: Form V                          :   1147.833u      0.200s     86.188w     50 calls
Properties                          :    230.797p                         182260 calls
Functional                          :     43.312p                         182260 calls
V_xc                                :    413.261p                         182260 calls
JK: D                               :      0.200u      0.000s      0.019w     50 calls
JK: USO2AO                          :      0.467u      0.000s      0.032w     50 calls
JK: JK                              :   3169.733u     27.183s    244.860w     50 calls
JK: J                               :     25.950u      0.267s      2.913w     50 calls
JK: J1                              :     12.450u      0.133s      1.408w     50 calls
JK: J2                              :     13.067u      0.133s      1.454w     50 calls
JK: K                               :   1042.083u      1.617s     79.176w     50 calls
JK: K1                              :    951.650u      0.467s     71.556w     50 calls
JK: K2                              :     90.400u      1.150s      7.608w     50 calls
JK: wK                              :   1947.950u      2.300s    146.556w    100 calls
JK: wK1                             :   1845.883u      0.750s    138.759w    200 calls
JK: wK2                             :    101.333u      1.550s      7.771w    100 calls
JK: AO2USO                          :      0.000u      0.000s      0.000w     50 calls
HF: Form F                          :      0.367u      0.017s      0.029w     50 calls
HF: Form D                          :      0.317u      0.000s      0.016w     50 calls
HF: DIIS                            :      7.217u      0.550s      0.578w     45 calls
DIISManager::add_entry              :      1.650u      0.167s      0.117w     45 calls
DIISManager::extrapolate            :      2.600u      0.317s      0.215w     45 calls
bMatrix setup                       :      1.117u      0.200s      0.100w     45 calls
bMatrix pseudoinverse               :      0.033u      0.000s      0.003w     45 calls
New vector                          :      1.450u      0.117s      0.113w     45 calls
HF: Form C                          :     16.250u      0.250s      1.241w     45 calls

--------------------------------------------------------------------------------------
V: Grid                             :     43.133u      0.417s      3.626w      5 calls
JK: (A|mn)                          :    322.400u      0.033s     24.220w      5 calls
JK: (A|Q)^-1/2                      :     26.600u      0.367s      2.876w      5 calls
JK: (Q|mn)                          :     49.267u      0.017s      7.400w      5 calls
JK: (A|mn)^L                        :    145.733u      0.183s     10.955w      5 calls
JK: (A|Q)^-1                        :     26.217u      0.400s      2.851w      5 calls
JK: (Q|mn)^L                        :     47.217u      0.000s      7.081w      5 calls
JK: (A|mn)^R                        :    176.967u      0.183s     13.310w      5 calls
HF: Form core H                     :      0.583u      0.100s      0.053w      5 calls
HF: Form S/X                        :      1.767u      0.017s      0.134w      5 calls
HF: Guess                           :     36.317u      0.783s      2.784w      5 calls
| SAD Guess                         :     35.517u      0.783s      2.721w      5 calls
HF: Form G                          :   4318.917u     27.417s    331.156w     50 calls
| RV: Form V                        :   1147.833u      0.200s     86.188w     50 calls
| | Properties                      :    230.797p                         182260 calls
| | Functional                      :     43.312p                         182260 calls
| | V_xc                            :    413.261p                         182260 calls
| JK: D                             :      0.200u      0.000s      0.019w     50 calls
| JK: USO2AO                        :      0.467u      0.000s      0.032w     50 calls
| JK: JK                            :   3169.733u     27.183s    244.860w     50 calls
| | JK: J                           :     25.950u      0.267s      2.913w     50 calls
| | | JK: J1                        :     12.450u      0.133s      1.408w     50 calls
| | | JK: J2                        :     13.067u      0.133s      1.454w     50 calls
| | JK: K                           :   1042.083u      1.617s     79.176w     50 calls
| | | JK: K1                        :    951.650u      0.467s     71.556w     50 calls
| | | JK: K2                        :     90.400u      1.150s      7.608w     50 calls
| | JK: wK                          :   1947.950u      2.300s    146.556w    100 calls
| | | JK: wK1                       :   1845.883u      0.750s    138.759w    200 calls
| | | JK: wK2                       :    101.333u      1.550s      7.771w    100 calls
| JK: AO2USO                        :      0.000u      0.000s      0.000w     50 calls
HF: Form F                          :      0.367u      0.017s      0.029w     50 calls
HF: Form D                          :      0.317u      0.000s      0.016w     50 calls
HF: DIIS                            :      7.217u      0.550s      0.578w     45 calls
| DIISManager::add_entry            :      1.650u      0.167s      0.117w     45 calls
| DIISManager::extrapolate          :      2.600u      0.317s      0.215w     45 calls
| | bMatrix setup                   :      1.117u      0.200s      0.100w     45 calls
| | bMatrix pseudoinverse           :      0.033u      0.000s      0.003w     45 calls
| | New vector                      :      1.450u      0.117s      0.113w     45 calls
HF: Form C                          :     16.250u      0.250s      1.241w     45 calls

**************************************************************************************

Host: cpu-spot-dy-c5n2xlarge-1

Timers On : Tue Jun 22 14:12:49 2021
Timers Off: Tue Jun 22 14:19:53 2021

Wall Time:      423.95 seconds

                                                       Time (seconds)
Module                                       User      System        Wall        Calls
V: Grid                             :     43.000u      0.433s      3.653w      5 calls
JK: (A|mn)                          :    327.583u      0.033s     24.589w      5 calls
JK: (A|Q)^-1/2                      :     26.850u      0.433s      2.924w      5 calls
JK: (Q|mn)                          :     48.967u      0.000s      7.352w      5 calls
JK: (A|mn)^L                        :    145.433u      0.083s     10.927w      5 calls
JK: (A|Q)^-1                        :     26.333u      0.367s      2.852w      5 calls
JK: (Q|mn)^L                        :     46.917u      0.000s      7.031w      5 calls
JK: (A|mn)^R                        :    176.817u      0.117s     13.281w      5 calls
HF: Form core H                     :      0.567u      0.050s      0.050w      5 calls
HF: Form S/X                        :      1.733u      0.050s      0.133w      5 calls
HF: Guess                           :     36.300u      0.833s      2.785w      5 calls
SAD Guess                           :     35.450u      0.817s      2.722w      5 calls
HF: Form G                          :   4158.033u     29.133s    319.054w     48 calls
RV: Form V                          :   1100.083u      0.217s     82.607w     48 calls
Properties                          :    223.927p                         173457 calls
Functional                          :     41.031p                         173457 calls
V_xc                                :    393.855p                         173457 calls
JK: D                               :      0.267u      0.000s      0.018w     48 calls
JK: USO2AO                          :      0.450u      0.000s      0.030w     48 calls
JK: JK                              :   3056.483u     28.917s    236.345w     48 calls
JK: J                               :     22.900u      0.183s      2.672w     48 calls
JK: J1                              :     11.100u      0.067s      1.297w     48 calls
JK: J2                              :     11.467u      0.117s      1.327w     48 calls
JK: K                               :   1000.233u      1.333s     75.901w     48 calls
JK: K1                              :    910.650u      0.267s     68.383w     48 calls
JK: K2                              :     89.467u      1.067s      7.506w     48 calls
JK: wK                              :   1872.333u      2.100s    140.745w     96 calls
JK: wK1                             :   1770.900u      0.550s    132.999w    192 calls
JK: wK2                             :    100.783u      1.533s      7.721w     96 calls
JK: AO2USO                          :      0.000u      0.000s      0.000w     48 calls
HF: Form F                          :      0.400u      0.000s      0.028w     48 calls
HF: Form D                          :      0.183u      0.000s      0.015w     48 calls
HF: DIIS                            :      6.750u      0.483s      0.542w     43 calls
DIISManager::add_entry              :      1.517u      0.167s      0.110w     43 calls
DIISManager::extrapolate            :      2.333u      0.300s      0.198w     43 calls
bMatrix setup                       :      1.033u      0.133s      0.091w     43 calls
bMatrix pseudoinverse               :      0.033u      0.000s      0.003w     43 calls
New vector                          :      1.267u      0.167s      0.104w     43 calls
HF: Form C                          :     15.550u      0.283s      1.191w     43 calls

--------------------------------------------------------------------------------------
V: Grid                             :     43.000u      0.433s      3.653w      5 calls
JK: (A|mn)                          :    327.583u      0.033s     24.589w      5 calls
JK: (A|Q)^-1/2                      :     26.850u      0.433s      2.924w      5 calls
JK: (Q|mn)                          :     48.967u      0.000s      7.352w      5 calls
JK: (A|mn)^L                        :    145.433u      0.083s     10.927w      5 calls
JK: (A|Q)^-1                        :     26.333u      0.367s      2.852w      5 calls
JK: (Q|mn)^L                        :     46.917u      0.000s      7.031w      5 calls
JK: (A|mn)^R                        :    176.817u      0.117s     13.281w      5 calls
HF: Form core H                     :      0.567u      0.050s      0.050w      5 calls
HF: Form S/X                        :      1.733u      0.050s      0.133w      5 calls
HF: Guess                           :     36.300u      0.833s      2.785w      5 calls
| SAD Guess                         :     35.450u      0.817s      2.722w      5 calls
HF: Form G                          :   4158.033u     29.133s    319.054w     48 calls
| RV: Form V                        :   1100.083u      0.217s     82.607w     48 calls
| | Properties                      :    223.927p                         173457 calls
| | Functional                      :     41.031p                         173457 calls
| | V_xc                            :    393.855p                         173457 calls
| JK: D                             :      0.267u      0.000s      0.018w     48 calls
| JK: USO2AO                        :      0.450u      0.000s      0.030w     48 calls
| JK: JK                            :   3056.483u     28.917s    236.345w     48 calls
| | JK: J                           :     22.900u      0.183s      2.672w     48 calls
| | | JK: J1                        :     11.100u      0.067s      1.297w     48 calls
| | | JK: J2                        :     11.467u      0.117s      1.327w     48 calls
| | JK: K                           :   1000.233u      1.333s     75.901w     48 calls
| | | JK: K1                        :    910.650u      0.267s     68.383w     48 calls
| | | JK: K2                        :     89.467u      1.067s      7.506w     48 calls
| | JK: wK                          :   1872.333u      2.100s    140.745w     96 calls
| | | JK: wK1                       :   1770.900u      0.550s    132.999w    192 calls
| | | JK: wK2                       :    100.783u      1.533s      7.721w     96 calls
| JK: AO2USO                        :      0.000u      0.000s      0.000w     48 calls
HF: Form F                          :      0.400u      0.000s      0.028w     48 calls
HF: Form D                          :      0.183u      0.000s      0.015w     48 calls
HF: DIIS                            :      6.750u      0.483s      0.542w     43 calls
| DIISManager::add_entry            :      1.517u      0.167s      0.110w     43 calls
| DIISManager::extrapolate          :      2.333u      0.300s      0.198w     43 calls
| | bMatrix setup                   :      1.033u      0.133s      0.091w     43 calls
| | bMatrix pseudoinverse           :      0.033u      0.000s      0.003w     43 calls
| | New vector                      :      1.267u      0.167s      0.104w     43 calls
HF: Form C                          :     15.550u      0.283s      1.191w     43 calls

**************************************************************************************

Host: cpu-spot-dy-c5n2xlarge-1

Timers On : Tue Jun 22 14:19:59 2021
Timers Off: Tue Jun 22 14:27:14 2021

Wall Time:      435.80 seconds

                                                       Time (seconds)
Module                                       User      System        Wall        Calls
V: Grid                             :     44.083u      0.367s      3.711w      5 calls
JK: (A|mn)                          :    326.850u      0.000s     24.544w      5 calls
JK: (A|Q)^-1/2                      :     26.950u      0.450s      2.938w      5 calls
JK: (Q|mn)                          :     48.867u      0.000s      7.335w      5 calls
JK: (A|mn)^L                        :    144.517u      0.133s     10.869w      5 calls
JK: (A|Q)^-1                        :     26.700u      0.433s      2.910w      5 calls
JK: (Q|mn)^L                        :     46.783u      0.000s      7.014w      5 calls
JK: (A|mn)^R                        :    174.883u      0.150s     13.158w      5 calls
HF: Form core H                     :      0.600u      0.050s      0.052w      5 calls
HF: Form S/X                        :      1.717u      0.050s      0.133w      5 calls
HF: Guess                           :     36.333u      0.783s      2.786w      5 calls
SAD Guess                           :     35.500u      0.783s      2.724w      5 calls
HF: Form G                          :   4307.150u     28.600s    331.133w     50 calls
RV: Form V                          :   1129.200u      0.283s     84.940w     50 calls
Properties                          :    227.631p                         182012 calls
Functional                          :     42.845p                         182012 calls
V_xc                                :    406.738p                         182012 calls
JK: D                               :      0.233u      0.000s      0.019w     50 calls
JK: USO2AO                          :      0.483u      0.000s      0.032w     50 calls
JK: JK                              :   3176.533u     28.317s    246.088w     50 calls
JK: J                               :     20.433u      0.033s      2.517w     50 calls
JK: J1                              :      9.883u      0.017s      1.228w     50 calls
JK: J2                              :     10.183u      0.017s      1.239w     50 calls
JK: K                               :   1043.367u      1.600s     79.521w     50 calls
JK: K1                              :    953.717u      0.617s     71.909w     50 calls
JK: K2                              :     89.550u      0.983s      7.599w     50 calls
JK: wK                              :   1951.583u      2.133s    146.998w    100 calls
JK: wK1                             :   1849.450u      0.817s    139.197w    200 calls
JK: wK2                             :    101.433u      1.300s      7.775w    100 calls
JK: AO2USO                          :      0.000u      0.000s      0.000w     50 calls
HF: Form F                          :      0.350u      0.000s      0.029w     50 calls
HF: Form D                          :      0.167u      0.017s      0.016w     50 calls
HF: DIIS                            :      7.083u      0.433s      0.562w     45 calls
DIISManager::add_entry              :      1.517u      0.183s      0.116w     45 calls
DIISManager::extrapolate            :      2.633u      0.200s      0.213w     45 calls
bMatrix setup                       :      1.217u      0.117s      0.098w     45 calls
bMatrix pseudoinverse               :      0.033u      0.000s      0.003w     45 calls
New vector                          :      1.383u      0.083s      0.112w     45 calls
HF: Form C                          :     15.933u      0.300s      1.221w     45 calls

--------------------------------------------------------------------------------------
V: Grid                             :     44.083u      0.367s      3.711w      5 calls
JK: (A|mn)                          :    326.850u      0.000s     24.544w      5 calls
JK: (A|Q)^-1/2                      :     26.950u      0.450s      2.938w      5 calls
JK: (Q|mn)                          :     48.867u      0.000s      7.335w      5 calls
JK: (A|mn)^L                        :    144.517u      0.133s     10.869w      5 calls
JK: (A|Q)^-1                        :     26.700u      0.433s      2.910w      5 calls
JK: (Q|mn)^L                        :     46.783u      0.000s      7.014w      5 calls
JK: (A|mn)^R                        :    174.883u      0.150s     13.158w      5 calls
HF: Form core H                     :      0.600u      0.050s      0.052w      5 calls
HF: Form S/X                        :      1.717u      0.050s      0.133w      5 calls
HF: Guess                           :     36.333u      0.783s      2.786w      5 calls
| SAD Guess                         :     35.500u      0.783s      2.724w      5 calls
HF: Form G                          :   4307.150u     28.600s    331.133w     50 calls
| RV: Form V                        :   1129.200u      0.283s     84.940w     50 calls
| | Properties                      :    227.631p                         182012 calls
| | Functional                      :     42.845p                         182012 calls
| | V_xc                            :    406.738p                         182012 calls
| JK: D                             :      0.233u      0.000s      0.019w     50 calls
| JK: USO2AO                        :      0.483u      0.000s      0.032w     50 calls
| JK: JK                            :   3176.533u     28.317s    246.088w     50 calls
| | JK: J                           :     20.433u      0.033s      2.517w     50 calls
| | | JK: J1                        :      9.883u      0.017s      1.228w     50 calls
| | | JK: J2                        :     10.183u      0.017s      1.239w     50 calls
| | JK: K                           :   1043.367u      1.600s     79.521w     50 calls
| | | JK: K1                        :    953.717u      0.617s     71.909w     50 calls
| | | JK: K2                        :     89.550u      0.983s      7.599w     50 calls
| | JK: wK                          :   1951.583u      2.133s    146.998w    100 calls
| | | JK: wK1                       :   1849.450u      0.817s    139.197w    200 calls
| | | JK: wK2                       :    101.433u      1.300s      7.775w    100 calls
| JK: AO2USO                        :      0.000u      0.000s      0.000w     50 calls
HF: Form F                          :      0.350u      0.000s      0.029w     50 calls
HF: Form D                          :      0.167u      0.017s      0.016w     50 calls
HF: DIIS                            :      7.083u      0.433s      0.562w     45 calls
| DIISManager::add_entry            :      1.517u      0.183s      0.116w     45 calls
| DIISManager::extrapolate          :      2.633u      0.200s      0.213w     45 calls
| | bMatrix setup                   :      1.217u      0.117s      0.098w     45 calls
| | bMatrix pseudoinverse           :      0.033u      0.000s      0.003w     45 calls
| | New vector                      :      1.383u      0.083s      0.112w     45 calls
HF: Form C                          :     15.933u      0.300s      1.221w     45 calls

**************************************************************************************

Host: cpu-spot-dy-c5n2xlarge-1

Timers On : Tue Jun 22 14:27:20 2021
Timers Off: Tue Jun 22 14:34:36 2021

Wall Time:      436.38 seconds

                                                       Time (seconds)
Module                                       User      System        Wall        Calls
V: Grid                             :     43.217u      0.383s      3.631w      5 calls
JK: (A|mn)                          :    320.767u      0.000s     24.079w      5 calls
JK: (A|Q)^-1/2                      :     26.950u      0.283s      2.916w      5 calls
JK: (Q|mn)                          :     48.933u      0.017s      7.352w      5 calls
JK: (A|mn)^L                        :    144.200u      0.100s     10.832w      5 calls
JK: (A|Q)^-1                        :     26.683u      0.367s      2.904w      5 calls
JK: (Q|mn)^L                        :     46.900u      0.017s      7.032w      5 calls
JK: (A|mn)^R                        :    174.733u      0.167s     13.127w      5 calls
HF: Form core H                     :      0.583u      0.050s      0.051w      5 calls
HF: Form S/X                        :      1.700u      0.050s      0.130w      5 calls
HF: Guess                           :     36.200u      0.833s      2.780w      5 calls
SAD Guess                           :     35.367u      0.817s      2.717w      5 calls
HF: Form G                          :   4265.817u     28.867s    332.051w     50 calls
RV: Form V                          :   1134.133u      0.200s     86.570w     50 calls
Properties                          :    234.658p                         182074 calls
Functional                          :     43.484p                         182074 calls
V_xc                                :    411.869p                         182074 calls
JK: D                               :      0.250u      0.017s      0.020w     50 calls
JK: USO2AO                          :      0.367u      0.017s      0.032w     50 calls
JK: JK                              :   3130.283u     28.600s    245.360w     50 calls
JK: J                               :     24.483u      0.217s      2.862w     50 calls
JK: J1                              :     12.033u      0.100s      1.413w     50 calls
JK: J2                              :     12.033u      0.117s      1.399w     50 calls
JK: K                               :   1026.967u      1.450s     79.035w     50 calls
JK: K1                              :    936.667u      0.233s     71.481w     50 calls
JK: K2                              :     90.183u      1.217s      7.542w     50 calls
JK: wK                              :   1916.083u      2.450s    146.404w    100 calls
JK: wK1                             :   1812.733u      0.917s    138.479w    200 calls
JK: wK2                             :    102.667u      1.533s      7.899w    100 calls
JK: AO2USO                          :      0.000u      0.000s      0.000w     50 calls
HF: Form F                          :      0.533u      0.033s      0.045w     50 calls
HF: Form D                          :      0.267u      0.000s      0.023w     50 calls
HF: DIIS                            :      7.350u      0.617s      0.615w     45 calls
DIISManager::add_entry              :      1.750u      0.200s      0.130w     45 calls
DIISManager::extrapolate            :      2.533u      0.283s      0.220w     45 calls
bMatrix setup                       :      1.117u      0.200s      0.103w     45 calls
bMatrix pseudoinverse               :      0.050u      0.000s      0.003w     45 calls
New vector                          :      1.367u      0.083s      0.114w     45 calls
HF: Form C                          :     17.950u      0.417s      1.423w     45 calls

--------------------------------------------------------------------------------------
V: Grid                             :     43.217u      0.383s      3.631w      5 calls
JK: (A|mn)                          :    320.767u      0.000s     24.079w      5 calls
JK: (A|Q)^-1/2                      :     26.950u      0.283s      2.916w      5 calls
JK: (Q|mn)                          :     48.933u      0.017s      7.352w      5 calls
JK: (A|mn)^L                        :    144.200u      0.100s     10.832w      5 calls
JK: (A|Q)^-1                        :     26.683u      0.367s      2.904w      5 calls
JK: (Q|mn)^L                        :     46.900u      0.017s      7.032w      5 calls
JK: (A|mn)^R                        :    174.733u      0.167s     13.127w      5 calls
HF: Form core H                     :      0.583u      0.050s      0.051w      5 calls
HF: Form S/X                        :      1.700u      0.050s      0.130w      5 calls
HF: Guess                           :     36.200u      0.833s      2.780w      5 calls
| SAD Guess                         :     35.367u      0.817s      2.717w      5 calls
HF: Form G                          :   4265.817u     28.867s    332.051w     50 calls
| RV: Form V                        :   1134.133u      0.200s     86.570w     50 calls
| | Properties                      :    234.658p                         182074 calls
| | Functional                      :     43.484p                         182074 calls
| | V_xc                            :    411.869p                         182074 calls
| JK: D                             :      0.250u      0.017s      0.020w     50 calls
| JK: USO2AO                        :      0.367u      0.017s      0.032w     50 calls
| JK: JK                            :   3130.283u     28.600s    245.360w     50 calls
| | JK: J                           :     24.483u      0.217s      2.862w     50 calls
| | | JK: J1                        :     12.033u      0.100s      1.413w     50 calls
| | | JK: J2                        :     12.033u      0.117s      1.399w     50 calls
| | JK: K                           :   1026.967u      1.450s     79.035w     50 calls
| | | JK: K1                        :    936.667u      0.233s     71.481w     50 calls
| | | JK: K2                        :     90.183u      1.217s      7.542w     50 calls
| | JK: wK                          :   1916.083u      2.450s    146.404w    100 calls
| | | JK: wK1                       :   1812.733u      0.917s    138.479w    200 calls
| | | JK: wK2                       :    102.667u      1.533s      7.899w    100 calls
| JK: AO2USO                        :      0.000u      0.000s      0.000w     50 calls
HF: Form F                          :      0.533u      0.033s      0.045w     50 calls
HF: Form D                          :      0.267u      0.000s      0.023w     50 calls
HF: DIIS                            :      7.350u      0.617s      0.615w     45 calls
| DIISManager::add_entry            :      1.750u      0.200s      0.130w     45 calls
| DIISManager::extrapolate          :      2.533u      0.283s      0.220w     45 calls
| | bMatrix setup                   :      1.117u      0.200s      0.103w     45 calls
| | bMatrix pseudoinverse           :      0.050u      0.000s      0.003w     45 calls
| | New vector                      :      1.367u      0.083s      0.114w     45 calls
HF: Form C                          :     17.950u      0.417s      1.423w     45 calls

**************************************************************************************

Host: cpu-spot-dy-c5n2xlarge-1

Timers On : Tue Jun 22 14:34:41 2021
Timers Off: Tue Jun 22 14:42:02 2021

Wall Time:      440.46 seconds

                                                       Time (seconds)
Module                                       User      System        Wall        Calls
V: Grid                             :     43.700u      0.383s      3.674w      5 calls
JK: (A|mn)                          :    329.200u      0.017s     24.710w      5 calls
JK: (A|Q)^-1/2                      :     27.267u      0.367s      2.981w      5 calls
JK: (Q|mn)                          :     49.183u      0.000s      7.386w      5 calls
JK: (A|mn)^L                        :    145.783u      0.183s     10.954w      5 calls
JK: (A|Q)^-1                        :     26.483u      0.383s      2.878w      5 calls
JK: (Q|mn)^L                        :     47.167u      0.000s      7.070w      5 calls
JK: (A|mn)^R                        :    176.150u      0.133s     13.232w      5 calls
HF: Form core H                     :      0.617u      0.083s      0.053w      5 calls
HF: Form S/X                        :      1.733u      0.067s      0.135w      5 calls
HF: Guess                           :     36.133u      0.833s      2.774w      5 calls
SAD Guess                           :     35.317u      0.833s      2.711w      5 calls
HF: Form G                          :   4374.150u     28.717s    335.269w     51 calls
RV: Form V                          :   1156.100u      0.133s     86.817w     51 calls
Properties                          :    234.653p                         186202 calls
Functional                          :     43.711p                         186202 calls
V_xc                                :    413.780p                         186202 calls
JK: D                               :      0.250u      0.033s      0.020w     51 calls
JK: USO2AO                          :      0.500u      0.000s      0.033w     51 calls
JK: JK                              :   3216.500u     28.517s    248.341w     51 calls
JK: J                               :     27.650u      0.183s      3.025w     51 calls
JK: J1                              :     13.250u      0.050s      1.463w     51 calls
JK: J2                              :     13.900u      0.133s      1.509w     51 calls
JK: K                               :   1056.883u      1.333s     80.169w     51 calls
JK: K1                              :    965.683u      0.267s     72.522w     51 calls
JK: K2                              :     91.100u      1.067s      7.634w     51 calls
JK: wK                              :   1970.333u      1.983s    148.094w    102 calls
JK: wK1                             :   1867.000u      0.583s    140.207w    204 calls
JK: wK2                             :    102.567u      1.367s      7.861w    102 calls
JK: AO2USO                          :      0.000u      0.000s      0.000w     51 calls
HF: Form F                          :      0.417u      0.017s      0.030w     51 calls
HF: Form D                          :      0.217u      0.000s      0.015w     51 calls
HF: DIIS                            :      7.667u      0.483s      0.610w     46 calls
DIISManager::add_entry              :      1.733u      0.200s      0.123w     46 calls
DIISManager::extrapolate            :      2.733u      0.233s      0.228w     46 calls
bMatrix setup                       :      1.200u      0.100s      0.106w     46 calls
bMatrix pseudoinverse               :      0.083u      0.000s      0.003w     46 calls
New vector                          :      1.450u      0.133s      0.118w     46 calls
HF: Form C                          :     16.850u      0.250s      1.285w     46 calls

--------------------------------------------------------------------------------------
V: Grid                             :     43.700u      0.383s      3.674w      5 calls
JK: (A|mn)                          :    329.200u      0.017s     24.710w      5 calls
JK: (A|Q)^-1/2                      :     27.267u      0.367s      2.981w      5 calls
JK: (Q|mn)                          :     49.183u      0.000s      7.386w      5 calls
JK: (A|mn)^L                        :    145.783u      0.183s     10.954w      5 calls
JK: (A|Q)^-1                        :     26.483u      0.383s      2.878w      5 calls
JK: (Q|mn)^L                        :     47.167u      0.000s      7.070w      5 calls
JK: (A|mn)^R                        :    176.150u      0.133s     13.232w      5 calls
HF: Form core H                     :      0.617u      0.083s      0.053w      5 calls
HF: Form S/X                        :      1.733u      0.067s      0.135w      5 calls
HF: Guess                           :     36.133u      0.833s      2.774w      5 calls
| SAD Guess                         :     35.317u      0.833s      2.711w      5 calls
HF: Form G                          :   4374.150u     28.717s    335.269w     51 calls
| RV: Form V                        :   1156.100u      0.133s     86.817w     51 calls
| | Properties                      :    234.653p                         186202 calls
| | Functional                      :     43.711p                         186202 calls
| | V_xc                            :    413.780p                         186202 calls
| JK: D                             :      0.250u      0.033s      0.020w     51 calls
| JK: USO2AO                        :      0.500u      0.000s      0.033w     51 calls
| JK: JK                            :   3216.500u     28.517s    248.341w     51 calls
| | JK: J                           :     27.650u      0.183s      3.025w     51 calls
| | | JK: J1                        :     13.250u      0.050s      1.463w     51 calls
| | | JK: J2                        :     13.900u      0.133s      1.509w     51 calls
| | JK: K                           :   1056.883u      1.333s     80.169w     51 calls
| | | JK: K1                        :    965.683u      0.267s     72.522w     51 calls
| | | JK: K2                        :     91.100u      1.067s      7.634w     51 calls
| | JK: wK                          :   1970.333u      1.983s    148.094w    102 calls
| | | JK: wK1                       :   1867.000u      0.583s    140.207w    204 calls
| | | JK: wK2                       :    102.567u      1.367s      7.861w    102 calls
| JK: AO2USO                        :      0.000u      0.000s      0.000w     51 calls
HF: Form F                          :      0.417u      0.017s      0.030w     51 calls
HF: Form D                          :      0.217u      0.000s      0.015w     51 calls
HF: DIIS                            :      7.667u      0.483s      0.610w     46 calls
| DIISManager::add_entry            :      1.733u      0.200s      0.123w     46 calls
| DIISManager::extrapolate          :      2.733u      0.233s      0.228w     46 calls
| | bMatrix setup                   :      1.200u      0.100s      0.106w     46 calls
| | bMatrix pseudoinverse           :      0.083u      0.000s      0.003w     46 calls
| | New vector                      :      1.450u      0.133s      0.118w     46 calls
HF: Form C                          :     16.850u      0.250s      1.285w     46 calls

**************************************************************************************

Host: cpu-spot-dy-c5n2xlarge-1

Timers On : Tue Jun 22 14:42:13 2021
Timers Off: Tue Jun 22 14:49:17 2021

Wall Time:      423.91 seconds

                                                       Time (seconds)
Module                                       User      System        Wall        Calls
V: Grid                             :     42.900u      0.383s      3.613w      5 calls
JK: (A|mn)                          :    325.217u      0.033s     24.437w      5 calls
JK: (A|Q)^-1/2                      :     27.400u      0.433s      2.984w      5 calls
JK: (Q|mn)                          :     49.167u      0.000s      7.384w      5 calls
JK: (A|mn)^L                        :    147.467u      0.200s     11.117w      5 calls
JK: (A|Q)^-1                        :     26.750u      0.383s      2.892w      5 calls
JK: (Q|mn)^L                        :     47.000u      0.000s      7.049w      5 calls
JK: (A|mn)^R                        :    179.067u      0.167s     13.612w      5 calls
HF: Form core H                     :      0.600u      0.050s      0.052w      5 calls
HF: Form S/X                        :      1.850u      0.033s      0.146w      5 calls
HF: Guess                           :     36.883u      0.800s      2.925w      5 calls
SAD Guess                           :     35.850u      0.767s      2.843w      5 calls
HF: Form G                          :   4144.333u     29.133s    318.285w     48 calls
RV: Form V                          :   1099.450u      0.467s     82.924w     48 calls
Properties                          :    222.697p                         173086 calls
Functional                          :     41.081p                         173086 calls
V_xc                                :    397.446p                         173086 calls
JK: D                               :      0.233u      0.000s      0.018w     48 calls
JK: USO2AO                          :      0.417u      0.000s      0.030w     48 calls
JK: JK                              :   3043.550u     28.667s    235.257w     48 calls
JK: J                               :     23.283u      0.217s      2.728w     48 calls
JK: J1                              :     11.367u      0.050s      1.334w     48 calls
JK: J2                              :     11.550u      0.167s      1.345w     48 calls
JK: K                               :    996.233u      1.350s     75.543w     48 calls
JK: K1                              :    905.883u      0.250s     68.040w     48 calls
JK: K2                              :     90.317u      1.100s      7.490w     48 calls
JK: wK                              :   1858.017u      2.283s    139.908w     96 calls
JK: wK1                             :   1755.917u      0.867s    132.091w    192 calls
JK: wK2                             :    101.467u      1.400s      7.792w     96 calls
JK: AO2USO                          :      0.000u      0.000s      0.000w     48 calls
HF: Form F                          :      0.400u      0.000s      0.028w     48 calls
HF: Form D                          :      0.167u      0.000s      0.015w     48 calls
HF: DIIS                            :      6.700u      0.433s      0.546w     43 calls
DIISManager::add_entry              :      1.533u      0.167s      0.111w     43 calls
DIISManager::extrapolate            :      2.333u      0.250s      0.199w     43 calls
bMatrix setup                       :      1.033u      0.150s      0.092w     43 calls
bMatrix pseudoinverse               :      0.017u      0.000s      0.003w     43 calls
New vector                          :      1.283u      0.100s      0.104w     43 calls
HF: Form C                          :     15.150u      0.283s      1.165w     43 calls

--------------------------------------------------------------------------------------
V: Grid                             :     42.900u      0.383s      3.613w      5 calls
JK: (A|mn)                          :    325.217u      0.033s     24.437w      5 calls
JK: (A|Q)^-1/2                      :     27.400u      0.433s      2.984w      5 calls
JK: (Q|mn)                          :     49.167u      0.000s      7.384w      5 calls
JK: (A|mn)^L                        :    147.467u      0.200s     11.117w      5 calls
JK: (A|Q)^-1                        :     26.750u      0.383s      2.892w      5 calls
JK: (Q|mn)^L                        :     47.000u      0.000s      7.049w      5 calls
JK: (A|mn)^R                        :    179.067u      0.167s     13.612w      5 calls
HF: Form core H                     :      0.600u      0.050s      0.052w      5 calls
HF: Form S/X                        :      1.850u      0.033s      0.146w      5 calls
HF: Guess                           :     36.883u      0.800s      2.925w      5 calls
| SAD Guess                         :     35.850u      0.767s      2.843w      5 calls
HF: Form G                          :   4144.333u     29.133s    318.285w     48 calls
| RV: Form V                        :   1099.450u      0.467s     82.924w     48 calls
| | Properties                      :    222.697p                         173086 calls
| | Functional                      :     41.081p                         173086 calls
| | V_xc                            :    397.446p                         173086 calls
| JK: D                             :      0.233u      0.000s      0.018w     48 calls
| JK: USO2AO                        :      0.417u      0.000s      0.030w     48 calls
| JK: JK                            :   3043.550u     28.667s    235.257w     48 calls
| | JK: J                           :     23.283u      0.217s      2.728w     48 calls
| | | JK: J1                        :     11.367u      0.050s      1.334w     48 calls
| | | JK: J2                        :     11.550u      0.167s      1.345w     48 calls
| | JK: K                           :    996.233u      1.350s     75.543w     48 calls
| | | JK: K1                        :    905.883u      0.250s     68.040w     48 calls
| | | JK: K2                        :     90.317u      1.100s      7.490w     48 calls
| | JK: wK                          :   1858.017u      2.283s    139.908w     96 calls
| | | JK: wK1                       :   1755.917u      0.867s    132.091w    192 calls
| | | JK: wK2                       :    101.467u      1.400s      7.792w     96 calls
| JK: AO2USO                        :      0.000u      0.000s      0.000w     48 calls
HF: Form F                          :      0.400u      0.000s      0.028w     48 calls
HF: Form D                          :      0.167u      0.000s      0.015w     48 calls
HF: DIIS                            :      6.700u      0.433s      0.546w     43 calls
| DIISManager::add_entry            :      1.533u      0.167s      0.111w     43 calls
| DIISManager::extrapolate          :      2.333u      0.250s      0.199w     43 calls
| | bMatrix setup                   :      1.033u      0.150s      0.092w     43 calls
| | bMatrix pseudoinverse           :      0.017u      0.000s      0.003w     43 calls
| | New vector                      :      1.283u      0.100s      0.104w     43 calls
HF: Form C                          :     15.150u      0.283s      1.165w     43 calls

**************************************************************************************

Host: cpu-spot-dy-c5n2xlarge-1

Timers On : Tue Jun 22 14:49:22 2021
Timers Off: Tue Jun 22 14:57:01 2021

Wall Time:      458.63 seconds

[...]
JK: USO2AO                          :      0.467u      0.017s      0.030w     48 calls
JK: JK                              :   3064.483u     28.233s    236.864w     48 calls
JK: J                               :     23.167u      0.117s      2.698w     48 calls
JK: J1                              :     11.067u      0.067s      1.309w     48 calls
JK: J2                              :     11.700u      0.050s      1.341w     48 calls
JK: K                               :   1002.017u      1.233s     76.123w     48 calls
JK: K1                              :    910.717u      0.150s     68.385w     48 calls
JK: K2                              :     91.167u      1.067s      7.727w     48 calls
JK: wK                              :   1878.400u      2.033s    141.187w     96 calls
JK: wK1                             :   1772.833u      0.650s    133.123w    192 calls
JK: wK2                             :    104.933u      1.367s      8.040w     96 calls
JK: AO2USO                          :      0.000u      0.000s      0.000w     48 calls
HF: Form F                          :      0.350u      0.000s      0.027w     48 calls
HF: Form D                          :      0.167u      0.000s      0.015w     48 calls
HF: DIIS                            :      6.800u      0.567s      0.545w     43 calls
DIISManager::add_entry              :      1.517u      0.183s      0.111w     43 calls
DIISManager::extrapolate            :      2.233u      0.300s      0.195w     43 calls
bMatrix setup                       :      1.000u      0.100s      0.089w     43 calls
bMatrix pseudoinverse               :      0.000u      0.000s      0.003w     43 calls
New vector                          :      1.233u      0.200s      0.103w     43 calls
HF: Form C                          :     15.917u      0.167s      1.210w     43 calls

--------------------------------------------------------------------------------------
V: Grid                             :     42.833u      0.450s      3.608w      5 calls
JK: (A|mn)                          :    328.500u      0.000s     24.656w      5 calls
JK: (A|Q)^-1/2                      :     27.633u      0.417s      3.037w      5 calls
JK: (Q|mn)                          :     51.850u      0.000s      7.781w      5 calls
JK: (A|mn)^L                        :    146.733u      0.117s     11.022w      5 calls
JK: (A|Q)^-1                        :     27.683u      0.317s      3.041w      5 calls
JK: (Q|mn)^L                        :     49.733u      0.000s      7.459w      5 calls
JK: (A|mn)^R                        :    178.517u      0.133s     13.409w      5 calls
HF: Form core H                     :      0.583u      0.067s      0.052w      5 calls
HF: Form S/X                        :      1.783u      0.067s      0.139w      5 calls
HF: Guess                           :     36.367u      0.733s      2.781w      5 calls
| SAD Guess                         :     35.567u      0.700s      2.717w      5 calls
HF: Form G                          :   4207.150u     28.433s    322.653w     48 calls
| RV: Form V                        :   1141.333u      0.167s     85.688w     48 calls
| | Properties                      :    230.985p                         174060 calls
| | Functional                      :     43.469p                         174060 calls
| | V_xc                            :    409.203p                         174060 calls
| JK: D                             :      0.200u      0.000s      0.018w     48 calls
| JK: USO2AO                        :      0.467u      0.017s      0.030w     48 calls
| JK: JK                            :   3064.483u     28.233s    236.864w     48 calls
| | JK: J                           :     23.167u      0.117s      2.698w     48 calls
| | | JK: J1                        :     11.067u      0.067s      1.309w     48 calls
| | | JK: J2                        :     11.700u      0.050s      1.341w     48 calls
| | JK: K                           :   1002.017u      1.233s     76.123w     48 calls
| | | JK: K1                        :    910.717u      0.150s     68.385w     48 calls
| | | JK: K2                        :     91.167u      1.067s      7.727w     48 calls
| | JK: wK                          :   1878.400u      2.033s    141.187w     96 calls
| | | JK: wK1                       :   1772.833u      0.650s    133.123w    192 calls
| | | JK: wK2                       :    104.933u      1.367s      8.040w     96 calls
| JK: AO2USO                        :      0.000u      0.000s      0.000w     48 calls
HF: Form F                          :      0.350u      0.000s      0.027w     48 calls
HF: Form D                          :      0.167u      0.000s      0.015w     48 calls
HF: DIIS                            :      6.800u      0.567s      0.545w     43 calls
| DIISManager::add_entry            :      1.517u      0.183s      0.111w     43 calls
| DIISManager::extrapolate          :      2.233u      0.300s      0.195w     43 calls
| | bMatrix setup                   :      1.000u      0.100s      0.089w     43 calls
| | bMatrix pseudoinverse           :      0.000u      0.000s      0.003w     43 calls
| | New vector                      :      1.233u      0.200s      0.103w     43 calls
HF: Form C                          :     15.917u      0.167s      1.210w     43 calls

**************************************************************************************

Host: cpu-spot-dy-c5n2xlarge-1

Timers On : Tue Jun 22 20:32:51 2021
Timers Off: Tue Jun 22 20:39:58 2021

Wall Time:      427.50 seconds

                                                       Time (seconds)
Module                                       User      System        Wall        Calls
V: Grid                             :     43.817u      0.417s      3.666w      5 calls
JK: (A|mn)                          :    325.800u      0.050s     24.456w      5 calls
JK: (A|Q)^-1/2                      :     27.550u      0.450s      3.011w      5 calls
JK: (Q|mn)                          :     51.683u      0.000s      7.763w      5 calls
JK: (A|mn)^L                        :    146.683u      0.117s     11.022w      5 calls
JK: (A|Q)^-1                        :     27.417u      0.350s      2.991w      5 calls
JK: (Q|mn)^L                        :     49.633u      0.000s      7.440w      5 calls
JK: (A|mn)^R                        :    177.967u      0.150s     13.367w      5 calls
HF: Form core H                     :      0.600u      0.050s      0.053w      5 calls
HF: Form S/X                        :      1.833u      0.050s      0.140w      5 calls
HF: Guess                           :     36.083u      0.933s      2.779w      5 calls
SAD Guess                           :     35.300u      0.917s      2.717w      5 calls
HF: Form G                          :   4199.333u     28.467s    321.664w     48 calls
RV: Form V                          :   1133.050u      0.117s     85.055w     48 calls
Properties                          :    228.861p                         173857 calls
Functional                          :     43.335p                         173857 calls
V_xc                                :    406.452p                         173857 calls
JK: D                               :      0.217u      0.000s      0.018w     48 calls
JK: USO2AO                          :      0.450u      0.000s      0.030w     48 calls
JK: JK                              :   3064.867u     28.350s    236.509w     48 calls
JK: J                               :     18.483u      0.100s      2.339w     48 calls
JK: J1                              :      8.883u      0.050s      1.142w     48 calls
JK: J2                              :      9.100u      0.050s      1.149w     48 calls
JK: K                               :   1003.450u      1.433s     76.196w     48 calls
JK: K1                              :    911.717u      0.333s     68.471w     48 calls
JK: K2                              :     91.683u      1.100s      7.713w     48 calls
JK: wK                              :   1877.433u      2.117s    141.140w     96 calls
JK: wK1                             :   1772.467u      0.617s    133.131w    192 calls
JK: wK2                             :    104.383u      1.483s      7.985w     96 calls
JK: AO2USO                          :      0.000u      0.000s      0.000w     48 calls
HF: Form F                          :      0.350u      0.017s      0.027w     48 calls
HF: Form D                          :      0.167u      0.000s      0.015w     48 calls
HF: DIIS                            :      6.633u      0.450s      0.536w     43 calls
DIISManager::add_entry              :      1.550u      0.183s      0.111w     43 calls
DIISManager::extrapolate            :      2.367u      0.233s      0.197w     43 calls
bMatrix setup                       :      1.050u      0.100s      0.090w     43 calls
bMatrix pseudoinverse               :      0.100u      0.000s      0.003w     43 calls
New vector                          :      1.217u      0.133s      0.103w     43 calls
HF: Form C                          :     15.850u      0.267s      1.202w     43 calls

--------------------------------------------------------------------------------------
V: Grid                             :     43.817u      0.417s      3.666w      5 calls
JK: (A|mn)                          :    325.800u      0.050s     24.456w      5 calls
JK: (A|Q)^-1/2                      :     27.550u      0.450s      3.011w      5 calls
JK: (Q|mn)                          :     51.683u      0.000s      7.763w      5 calls
JK: (A|mn)^L                        :    146.683u      0.117s     11.022w      5 calls
JK: (A|Q)^-1                        :     27.417u      0.350s      2.991w      5 calls
JK: (Q|mn)^L                        :     49.633u      0.000s      7.440w      5 calls
JK: (A|mn)^R                        :    177.967u      0.150s     13.367w      5 calls
HF: Form core H                     :      0.600u      0.050s      0.053w      5 calls
HF: Form S/X                        :      1.833u      0.050s      0.140w      5 calls
HF: Guess                           :     36.083u      0.933s      2.779w      5 calls
| SAD Guess                         :     35.300u      0.917s      2.717w      5 calls
HF: Form G                          :   4199.333u     28.467s    321.664w     48 calls
| RV: Form V                        :   1133.050u      0.117s     85.055w     48 calls
| | Properties                      :    228.861p                         173857 calls
| | Functional                      :     43.335p                         173857 calls
| | V_xc                            :    406.452p                         173857 calls
| JK: D                             :      0.217u      0.000s      0.018w     48 calls
| JK: USO2AO                        :      0.450u      0.000s      0.030w     48 calls
| JK: JK                            :   3064.867u     28.350s    236.509w     48 calls
| | JK: J                           :     18.483u      0.100s      2.339w     48 calls
| | | JK: J1                        :      8.883u      0.050s      1.142w     48 calls
| | | JK: J2                        :      9.100u      0.050s      1.149w     48 calls
| | JK: K                           :   1003.450u      1.433s     76.196w     48 calls
| | | JK: K1                        :    911.717u      0.333s     68.471w     48 calls
| | | JK: K2                        :     91.683u      1.100s      7.713w     48 calls
| | JK: wK                          :   1877.433u      2.117s    141.140w     96 calls
| | | JK: wK1                       :   1772.467u      0.617s    133.131w    192 calls
| | | JK: wK2                       :    104.383u      1.483s      7.985w     96 calls
| JK: AO2USO                        :      0.000u      0.000s      0.000w     48 calls
HF: Form F                          :      0.350u      0.017s      0.027w     48 calls
HF: Form D                          :      0.167u      0.000s      0.015w     48 calls
HF: DIIS                            :      6.633u      0.450s      0.536w     43 calls
| DIISManager::add_entry            :      1.550u      0.183s      0.111w     43 calls
| DIISManager::extrapolate          :      2.367u      0.233s      0.197w     43 calls
| | bMatrix setup                   :      1.050u      0.100s      0.090w     43 calls
| | bMatrix pseudoinverse           :      0.100u      0.000s      0.003w     43 calls
| | New vector                      :      1.217u      0.133s      0.103w     43 calls
HF: Form C                          :     15.850u      0.267s      1.202w     43 calls

**************************************************************************************

Host: cpu-spot-dy-c5n2xlarge-1

Timers On : Tue Jun 22 20:40:04 2021
Timers Off: Tue Jun 22 20:47:11 2021

Wall Time:      427.21 seconds

                                                       Time (seconds)
Module                                       User      System        Wall        Calls
V: Grid                             :     42.783u      0.400s      3.597w      5 calls
JK: (A|mn)                          :    319.733u      0.033s     23.998w      5 calls
JK: (A|Q)^-1/2                      :     27.133u      0.367s      2.953w      5 calls
JK: (Q|mn)                          :     51.600u      0.000s      7.748w      5 calls
JK: (A|mn)^L                        :    143.900u      0.150s     10.812w      5 calls
JK: (A|Q)^-1                        :     26.850u      0.433s      2.940w      5 calls
JK: (Q|mn)^L                        :     49.533u      0.000s      7.428w      5 calls
JK: (A|mn)^R                        :    173.867u      0.083s     13.053w      5 calls
HF: Form core H                     :      0.583u      0.033s      0.050w      5 calls
HF: Form S/X                        :      1.750u      0.083s      0.136w      5 calls
HF: Guess                           :     36.233u      0.867s      2.782w      5 calls
SAD Guess                           :     35.383u      0.850s      2.719w      5 calls
HF: Form G                          :   4205.183u     28.367s    322.534w     48 calls
RV: Form V                          :   1122.383u      0.167s     84.261w     48 calls
Properties                          :    227.164p                         173799 calls
Functional                          :     43.154p                         173799 calls
V_xc                                :    401.748p                         173799 calls
JK: D                               :      0.233u      0.000s      0.019w     48 calls
JK: USO2AO                          :      0.383u      0.017s      0.030w     48 calls
JK: JK                              :   3081.400u     28.100s    238.171w     48 calls
JK: J                               :     22.933u      0.200s      2.679w     48 calls
JK: J1                              :     10.900u      0.083s      1.299w     48 calls
JK: J2                              :     11.483u      0.083s      1.332w     48 calls
JK: K                               :   1007.200u      1.400s     76.531w     48 calls
JK: K1                              :    915.783u      0.217s     68.763w     48 calls
JK: K2                              :     91.333u      1.183s      7.756w     48 calls
JK: wK                              :   1889.917u      2.117s    142.063w     96 calls
JK: wK1                             :   1784.483u      0.550s    134.007w    192 calls
JK: wK2                             :    104.867u      1.550s      8.031w     96 calls
JK: AO2USO                          :      0.000u      0.000s      0.000w     48 calls
HF: Form F                          :      0.300u      0.050s      0.028w     48 calls
HF: Form D                          :      0.117u      0.000s      0.015w     48 calls
HF: DIIS                            :      6.900u      0.383s      0.545w     43 calls
DIISManager::add_entry              :      1.500u      0.117s      0.112w     43 calls
DIISManager::extrapolate            :      2.400u      0.200s      0.196w     43 calls
bMatrix setup                       :      1.050u      0.133s      0.090w     43 calls
bMatrix pseudoinverse               :      0.017u      0.000s      0.003w     43 calls
New vector                          :      1.317u      0.067s      0.103w     43 calls
HF: Form C                          :     16.050u      0.233s      1.221w     43 calls

--------------------------------------------------------------------------------------
V: Grid                             :     42.783u      0.400s      3.597w      5 calls
JK: (A|mn)                          :    319.733u      0.033s     23.998w      5 calls
JK: (A|Q)^-1/2                      :     27.133u      0.367s      2.953w      5 calls
JK: (Q|mn)                          :     51.600u      0.000s      7.748w      5 calls
JK: (A|mn)^L                        :    143.900u      0.150s     10.812w      5 calls
JK: (A|Q)^-1                        :     26.850u      0.433s      2.940w      5 calls
JK: (Q|mn)^L                        :     49.533u      0.000s      7.428w      5 calls
JK: (A|mn)^R                        :    173.867u      0.083s     13.053w      5 calls
HF: Form core H                     :      0.583u      0.033s      0.050w      5 calls
HF: Form S/X                        :      1.750u      0.083s      0.136w      5 calls
HF: Guess                           :     36.233u      0.867s      2.782w      5 calls
| SAD Guess                         :     35.383u      0.850s      2.719w      5 calls
HF: Form G                          :   4205.183u     28.367s    322.534w     48 calls
| RV: Form V                        :   1122.383u      0.167s     84.261w     48 calls
| | Properties                      :    227.164p                         173799 calls
| | Functional                      :     43.154p                         173799 calls
| | V_xc                            :    401.748p                         173799 calls
| JK: D                             :      0.233u      0.000s      0.019w     48 calls
| JK: USO2AO                        :      0.383u      0.017s      0.030w     48 calls
| JK: JK                            :   3081.400u     28.100s    238.171w     48 calls
| | JK: J                           :     22.933u      0.200s      2.679w     48 calls
| | | JK: J1                        :     10.900u      0.083s      1.299w     48 calls
| | | JK: J2                        :     11.483u      0.083s      1.332w     48 calls
| | JK: K                           :   1007.200u      1.400s     76.531w     48 calls
| | | JK: K1                        :    915.783u      0.217s     68.763w     48 calls
| | | JK: K2                        :     91.333u      1.183s      7.756w     48 calls
| | JK: wK                          :   1889.917u      2.117s    142.063w     96 calls
| | | JK: wK1                       :   1784.483u      0.550s    134.007w    192 calls
| | | JK: wK2                       :    104.867u      1.550s      8.031w     96 calls
| JK: AO2USO                        :      0.000u      0.000s      0.000w     48 calls
HF: Form F                          :      0.300u      0.050s      0.028w     48 calls
HF: Form D                          :      0.117u      0.000s      0.015w     48 calls
HF: DIIS                            :      6.900u      0.383s      0.545w     43 calls
| DIISManager::add_entry            :      1.500u      0.117s      0.112w     43 calls
| DIISManager::extrapolate          :      2.400u      0.200s      0.196w     43 calls
| | bMatrix setup                   :      1.050u      0.133s      0.090w     43 calls
| | bMatrix pseudoinverse           :      0.017u      0.000s      0.003w     43 calls
| | New vector                      :      1.317u      0.067s      0.103w     43 calls
HF: Form C                          :     16.050u      0.233s      1.221w     43 calls

**************************************************************************************
